<UPF version="2.0.1">
<PP_INFO>

This pseudopotential file has been produced using the code
ONCVPSP  (Optimized Norm-Conservinng Vanderbilt PSeudopotential)
scalar-relativistic version 3.2.3 08/16/2016 by D. R. Hamann
The code is available through a link at URL www.mat-simresearch.com.
Documentation with the package provides a full discription of the
input data below.


While it is not required under the terms of the GNU GPL, it is
suggested that you cite D. R. Hamann, Phys. Rev. B 88, 085117 (2013)
in any publication using these pseudopotentials.

<PP_INPUTFILE>
# ATOM AND REFERENCE CONFIGURATION
# atsym  z   nc   nv     iexc    psfile
Kr 36.00    6    2       4      upf
#
#   n    l    f        energy (Ha)
1    0    2.00
2    0    2.00
2    1    6.00
3    0    2.00
3    1    6.00
3    2   10.00
4    0    2.00
4    1    6.00
#
# PSEUDOPOTENTIAL AND OPTIMIZATION
# lmax
2
#
#   l,   rc,      ep,       ncon, nbas, qcut
0   1.75000  -0.84704    4    8   6.10000
1   1.50000  -0.33984    4    7   7.00000
2   1.80000   0.10000    4    7   7.60000
#
# LOCAL POTENTIAL
# lloc, lpopt,  rc(5),   dvloc0
4    5   1.50000      0.00000
#
# VANDERBILT-KLEINMAN-BYLANDER PROJECTORs
# l, nproj, debl
0    2   3.00000
1    2   3.00000
2    2   4.00000
#
# MODEL CORE CHARGE
# icmod, fcfact, rcfact
3   7.00000   1.24000
#
# LOG DERIVATIVE ANALYSIS
# epsh1, epsh2, depsh
-12.00   12.00    0.02
#
# OUTPUT GRID
# rlmax, drl
6.00    0.01
#
# TEST CONFIGURATIONS
# ncnf
0
# nvcnf
#   n    l    f
</PP_INPUTFILE>
</PP_INFO>
<!--                               -->
<!-- END OF HUMAN READABLE SECTION -->
<!--                               -->
<PP_HEADER
generated="Generated using ONCVPSP code by D. R. Hamann"
author="anonymous"
date="170120"
comment=""
element="Kr"
pseudo_type="NC"
relativistic="scalar"
is_ultrasoft="F"
is_paw="F"
is_coulomb="F"
has_so="F"
has_wfc="F"
has_gipaw="F"
core_correction="T"
functional="PBE"
z_valence="    8.00"
total_psenergy="  -3.70721151326E+01"
rho_cutoff="   1.00500000000E+01"
l_max="2"
l_local="-1"
mesh_size="  1006"
number_of_wfc="2"
number_of_proj="6"/>
<PP_MESH>
<PP_R type="real"  size="1006" columns="8">
0.0000    0.0100    0.0200    0.0300    0.0400    0.0500    0.0600    0.0700
0.0800    0.0900    0.1000    0.1100    0.1200    0.1300    0.1400    0.1500
0.1600    0.1700    0.1800    0.1900    0.2000    0.2100    0.2200    0.2300
0.2400    0.2500    0.2600    0.2700    0.2800    0.2900    0.3000    0.3100
0.3200    0.3300    0.3400    0.3500    0.3600    0.3700    0.3800    0.3900
0.4000    0.4100    0.4200    0.4300    0.4400    0.4500    0.4600    0.4700
0.4800    0.4900    0.5000    0.5100    0.5200    0.5300    0.5400    0.5500
0.5600    0.5700    0.5800    0.5900    0.6000    0.6100    0.6200    0.6300
0.6400    0.6500    0.6600    0.6700    0.6800    0.6900    0.7000    0.7100
0.7200    0.7300    0.7400    0.7500    0.7600    0.7700    0.7800    0.7900
0.8000    0.8100    0.8200    0.8300    0.8400    0.8500    0.8600    0.8700
0.8800    0.8900    0.9000    0.9100    0.9200    0.9300    0.9400    0.9500
0.9600    0.9700    0.9800    0.9900    1.0000    1.0100    1.0200    1.0300
1.0400    1.0500    1.0600    1.0700    1.0800    1.0900    1.1000    1.1100
1.1200    1.1300    1.1400    1.1500    1.1600    1.1700    1.1800    1.1900
1.2000    1.2100    1.2200    1.2300    1.2400    1.2500    1.2600    1.2700
1.2800    1.2900    1.3000    1.3100    1.3200    1.3300    1.3400    1.3500
1.3600    1.3700    1.3800    1.3900    1.4000    1.4100    1.4200    1.4300
1.4400    1.4500    1.4600    1.4700    1.4800    1.4900    1.5000    1.5100
1.5200    1.5300    1.5400    1.5500    1.5600    1.5700    1.5800    1.5900
1.6000    1.6100    1.6200    1.6300    1.6400    1.6500    1.6600    1.6700
1.6800    1.6900    1.7000    1.7100    1.7200    1.7300    1.7400    1.7500
1.7600    1.7700    1.7800    1.7900    1.8000    1.8100    1.8200    1.8300
1.8400    1.8500    1.8600    1.8700    1.8800    1.8900    1.9000    1.9100
1.9200    1.9300    1.9400    1.9500    1.9600    1.9700    1.9800    1.9900
2.0000    2.0100    2.0200    2.0300    2.0400    2.0500    2.0600    2.0700
2.0800    2.0900    2.1000    2.1100    2.1200    2.1300    2.1400    2.1500
2.1600    2.1700    2.1800    2.1900    2.2000    2.2100    2.2200    2.2300
2.2400    2.2500    2.2600    2.2700    2.2800    2.2900    2.3000    2.3100
2.3200    2.3300    2.3400    2.3500    2.3600    2.3700    2.3800    2.3900
2.4000    2.4100    2.4200    2.4300    2.4400    2.4500    2.4600    2.4700
2.4800    2.4900    2.5000    2.5100    2.5200    2.5300    2.5400    2.5500
2.5600    2.5700    2.5800    2.5900    2.6000    2.6100    2.6200    2.6300
2.6400    2.6500    2.6600    2.6700    2.6800    2.6900    2.7000    2.7100
2.7200    2.7300    2.7400    2.7500    2.7600    2.7700    2.7800    2.7900
2.8000    2.8100    2.8200    2.8300    2.8400    2.8500    2.8600    2.8700
2.8800    2.8900    2.9000    2.9100    2.9200    2.9300    2.9400    2.9500
2.9600    2.9700    2.9800    2.9900    3.0000    3.0100    3.0200    3.0300
3.0400    3.0500    3.0600    3.0700    3.0800    3.0900    3.1000    3.1100
3.1200    3.1300    3.1400    3.1500    3.1600    3.1700    3.1800    3.1900
3.2000    3.2100    3.2200    3.2300    3.2400    3.2500    3.2600    3.2700
3.2800    3.2900    3.3000    3.3100    3.3200    3.3300    3.3400    3.3500
3.3600    3.3700    3.3800    3.3900    3.4000    3.4100    3.4200    3.4300
3.4400    3.4500    3.4600    3.4700    3.4800    3.4900    3.5000    3.5100
3.5200    3.5300    3.5400    3.5500    3.5600    3.5700    3.5800    3.5900
3.6000    3.6100    3.6200    3.6300    3.6400    3.6500    3.6600    3.6700
3.6800    3.6900    3.7000    3.7100    3.7200    3.7300    3.7400    3.7500
3.7600    3.7700    3.7800    3.7900    3.8000    3.8100    3.8200    3.8300
3.8400    3.8500    3.8600    3.8700    3.8800    3.8900    3.9000    3.9100
3.9200    3.9300    3.9400    3.9500    3.9600    3.9700    3.9800    3.9900
4.0000    4.0100    4.0200    4.0300    4.0400    4.0500    4.0600    4.0700
4.0800    4.0900    4.1000    4.1100    4.1200    4.1300    4.1400    4.1500
4.1600    4.1700    4.1800    4.1900    4.2000    4.2100    4.2200    4.2300
4.2400    4.2500    4.2600    4.2700    4.2800    4.2900    4.3000    4.3100
4.3200    4.3300    4.3400    4.3500    4.3600    4.3700    4.3800    4.3900
4.4000    4.4100    4.4200    4.4300    4.4400    4.4500    4.4600    4.4700
4.4800    4.4900    4.5000    4.5100    4.5200    4.5300    4.5400    4.5500
4.5600    4.5700    4.5800    4.5900    4.6000    4.6100    4.6200    4.6300
4.6400    4.6500    4.6600    4.6700    4.6800    4.6900    4.7000    4.7100
4.7200    4.7300    4.7400    4.7500    4.7600    4.7700    4.7800    4.7900
4.8000    4.8100    4.8200    4.8300    4.8400    4.8500    4.8600    4.8700
4.8800    4.8900    4.9000    4.9100    4.9200    4.9300    4.9400    4.9500
4.9600    4.9700    4.9800    4.9900    5.0000    5.0100    5.0200    5.0300
5.0400    5.0500    5.0600    5.0700    5.0800    5.0900    5.1000    5.1100
5.1200    5.1300    5.1400    5.1500    5.1600    5.1700    5.1800    5.1900
5.2000    5.2100    5.2200    5.2300    5.2400    5.2500    5.2600    5.2700
5.2800    5.2900    5.3000    5.3100    5.3200    5.3300    5.3400    5.3500
5.3600    5.3700    5.3800    5.3900    5.4000    5.4100    5.4200    5.4300
5.4400    5.4500    5.4600    5.4700    5.4800    5.4900    5.5000    5.5100
5.5200    5.5300    5.5400    5.5500    5.5600    5.5700    5.5800    5.5900
5.6000    5.6100    5.6200    5.6300    5.6400    5.6500    5.6600    5.6700
5.6800    5.6900    5.7000    5.7100    5.7200    5.7300    5.7400    5.7500
5.7600    5.7700    5.7800    5.7900    5.8000    5.8100    5.8200    5.8300
5.8400    5.8500    5.8600    5.8700    5.8800    5.8900    5.9000    5.9100
5.9200    5.9300    5.9400    5.9500    5.9600    5.9700    5.9800    5.9900
6.0000    6.0100    6.0200    6.0300    6.0400    6.0500    6.0600    6.0700
6.0800    6.0900    6.1000    6.1100    6.1200    6.1300    6.1400    6.1500
6.1600    6.1700    6.1800    6.1900    6.2000    6.2100    6.2200    6.2300
6.2400    6.2500    6.2600    6.2700    6.2800    6.2900    6.3000    6.3100
6.3200    6.3300    6.3400    6.3500    6.3600    6.3700    6.3800    6.3900
6.4000    6.4100    6.4200    6.4300    6.4400    6.4500    6.4600    6.4700
6.4800    6.4900    6.5000    6.5100    6.5200    6.5300    6.5400    6.5500
6.5600    6.5700    6.5800    6.5900    6.6000    6.6100    6.6200    6.6300
6.6400    6.6500    6.6600    6.6700    6.6800    6.6900    6.7000    6.7100
6.7200    6.7300    6.7400    6.7500    6.7600    6.7700    6.7800    6.7900
6.8000    6.8100    6.8200    6.8300    6.8400    6.8500    6.8600    6.8700
6.8800    6.8900    6.9000    6.9100    6.9200    6.9300    6.9400    6.9500
6.9600    6.9700    6.9800    6.9900    7.0000    7.0100    7.0200    7.0300
7.0400    7.0500    7.0600    7.0700    7.0800    7.0900    7.1000    7.1100
7.1200    7.1300    7.1400    7.1500    7.1600    7.1700    7.1800    7.1900
7.2000    7.2100    7.2200    7.2300    7.2400    7.2500    7.2600    7.2700
7.2800    7.2900    7.3000    7.3100    7.3200    7.3300    7.3400    7.3500
7.3600    7.3700    7.3800    7.3900    7.4000    7.4100    7.4200    7.4300
7.4400    7.4500    7.4600    7.4700    7.4800    7.4900    7.5000    7.5100
7.5200    7.5300    7.5400    7.5500    7.5600    7.5700    7.5800    7.5900
7.6000    7.6100    7.6200    7.6300    7.6400    7.6500    7.6600    7.6700
7.6800    7.6900    7.7000    7.7100    7.7200    7.7300    7.7400    7.7500
7.7600    7.7700    7.7800    7.7900    7.8000    7.8100    7.8200    7.8300
7.8400    7.8500    7.8600    7.8700    7.8800    7.8900    7.9000    7.9100
7.9200    7.9300    7.9400    7.9500    7.9600    7.9700    7.9800    7.9900
8.0000    8.0100    8.0200    8.0300    8.0400    8.0500    8.0600    8.0700
8.0800    8.0900    8.1000    8.1100    8.1200    8.1300    8.1400    8.1500
8.1600    8.1700    8.1800    8.1900    8.2000    8.2100    8.2200    8.2300
8.2400    8.2500    8.2600    8.2700    8.2800    8.2900    8.3000    8.3100
8.3200    8.3300    8.3400    8.3500    8.3600    8.3700    8.3800    8.3900
8.4000    8.4100    8.4200    8.4300    8.4400    8.4500    8.4600    8.4700
8.4800    8.4900    8.5000    8.5100    8.5200    8.5300    8.5400    8.5500
8.5600    8.5700    8.5800    8.5900    8.6000    8.6100    8.6200    8.6300
8.6400    8.6500    8.6600    8.6700    8.6800    8.6900    8.7000    8.7100
8.7200    8.7300    8.7400    8.7500    8.7600    8.7700    8.7800    8.7900
8.8000    8.8100    8.8200    8.8300    8.8400    8.8500    8.8600    8.8700
8.8800    8.8900    8.9000    8.9100    8.9200    8.9300    8.9400    8.9500
8.9600    8.9700    8.9800    8.9900    9.0000    9.0100    9.0200    9.0300
9.0400    9.0500    9.0600    9.0700    9.0800    9.0900    9.1000    9.1100
9.1200    9.1300    9.1400    9.1500    9.1600    9.1700    9.1800    9.1900
9.2000    9.2100    9.2200    9.2300    9.2400    9.2500    9.2600    9.2700
9.2800    9.2900    9.3000    9.3100    9.3200    9.3300    9.3400    9.3500
9.3600    9.3700    9.3800    9.3900    9.4000    9.4100    9.4200    9.4300
9.4400    9.4500    9.4600    9.4700    9.4800    9.4900    9.5000    9.5100
9.5200    9.5300    9.5400    9.5500    9.5600    9.5700    9.5800    9.5900
9.6000    9.6100    9.6200    9.6300    9.6400    9.6500    9.6600    9.6700
9.6800    9.6900    9.7000    9.7100    9.7200    9.7300    9.7400    9.7500
9.7600    9.7700    9.7800    9.7900    9.8000    9.8100    9.8200    9.8300
9.8400    9.8500    9.8600    9.8700    9.8800    9.8900    9.9000    9.9100
9.9200    9.9300    9.9400    9.9500    9.9600    9.9700    9.9800    9.9900
10.0000   10.0100   10.0200   10.0300   10.0400   10.0500
</PP_R>
<PP_RAB type="real"  size="1006" columns="8">
0.0100    0.0100    0.0100    0.0100    0.0100    0.0100    0.0100    0.0100
0.0100    0.0100    0.0100    0.0100    0.0100    0.0100    0.0100    0.0100
0.0100    0.0100    0.0100    0.0100    0.0100    0.0100    0.0100    0.0100
0.0100    0.0100    0.0100    0.0100    0.0100    0.0100    0.0100    0.0100
0.0100    0.0100    0.0100    0.0100    0.0100    0.0100    0.0100    0.0100
0.0100    0.0100    0.0100    0.0100    0.0100    0.0100    0.0100    0.0100
0.0100    0.0100    0.0100    0.0100    0.0100    0.0100    0.0100    0.0100
0.0100    0.0100    0.0100    0.0100    0.0100    0.0100    0.0100    0.0100
0.0100    0.0100    0.0100    0.0100    0.0100    0.0100    0.0100    0.0100
0.0100    0.0100    0.0100    0.0100    0.0100    0.0100    0.0100    0.0100
0.0100    0.0100    0.0100    0.0100    0.0100    0.0100    0.0100    0.0100
0.0100    0.0100    0.0100    0.0100    0.0100    0.0100    0.0100    0.0100
0.0100    0.0100    0.0100    0.0100    0.0100    0.0100    0.0100    0.0100
0.0100    0.0100    0.0100    0.0100    0.0100    0.0100    0.0100    0.0100
0.0100    0.0100    0.0100    0.0100    0.0100    0.0100    0.0100    0.0100
0.0100    0.0100    0.0100    0.0100    0.0100    0.0100    0.0100    0.0100
0.0100    0.0100    0.0100    0.0100    0.0100    0.0100    0.0100    0.0100
0.0100    0.0100    0.0100    0.0100    0.0100    0.0100    0.0100    0.0100
0.0100    0.0100    0.0100    0.0100    0.0100    0.0100    0.0100    0.0100
0.0100    0.0100    0.0100    0.0100    0.0100    0.0100    0.0100    0.0100
0.0100    0.0100    0.0100    0.0100    0.0100    0.0100    0.0100    0.0100
0.0100    0.0100    0.0100    0.0100    0.0100    0.0100    0.0100    0.0100
0.0100    0.0100    0.0100    0.0100    0.0100    0.0100    0.0100    0.0100
0.0100    0.0100    0.0100    0.0100    0.0100    0.0100    0.0100    0.0100
0.0100    0.0100    0.0100    0.0100    0.0100    0.0100    0.0100    0.0100
0.0100    0.0100    0.0100    0.0100    0.0100    0.0100    0.0100    0.0100
0.0100    0.0100    0.0100    0.0100    0.0100    0.0100    0.0100    0.0100
0.0100    0.0100    0.0100    0.0100    0.0100    0.0100    0.0100    0.0100
0.0100    0.0100    0.0100    0.0100    0.0100    0.0100    0.0100    0.0100
0.0100    0.0100    0.0100    0.0100    0.0100    0.0100    0.0100    0.0100
0.0100    0.0100    0.0100    0.0100    0.0100    0.0100    0.0100    0.0100
0.0100    0.0100    0.0100    0.0100    0.0100    0.0100    0.0100    0.0100
0.0100    0.0100    0.0100    0.0100    0.0100    0.0100    0.0100    0.0100
0.0100    0.0100    0.0100    0.0100    0.0100    0.0100    0.0100    0.0100
0.0100    0.0100    0.0100    0.0100    0.0100    0.0100    0.0100    0.0100
0.0100    0.0100    0.0100    0.0100    0.0100    0.0100    0.0100    0.0100
0.0100    0.0100    0.0100    0.0100    0.0100    0.0100    0.0100    0.0100
0.0100    0.0100    0.0100    0.0100    0.0100    0.0100    0.0100    0.0100
0.0100    0.0100    0.0100    0.0100    0.0100    0.0100    0.0100    0.0100
0.0100    0.0100    0.0100    0.0100    0.0100    0.0100    0.0100    0.0100
0.0100    0.0100    0.0100    0.0100    0.0100    0.0100    0.0100    0.0100
0.0100    0.0100    0.0100    0.0100    0.0100    0.0100    0.0100    0.0100
0.0100    0.0100    0.0100    0.0100    0.0100    0.0100    0.0100    0.0100
0.0100    0.0100    0.0100    0.0100    0.0100    0.0100    0.0100    0.0100
0.0100    0.0100    0.0100    0.0100    0.0100    0.0100    0.0100    0.0100
0.0100    0.0100    0.0100    0.0100    0.0100    0.0100    0.0100    0.0100
0.0100    0.0100    0.0100    0.0100    0.0100    0.0100    0.0100    0.0100
0.0100    0.0100    0.0100    0.0100    0.0100    0.0100    0.0100    0.0100
0.0100    0.0100    0.0100    0.0100    0.0100    0.0100    0.0100    0.0100
0.0100    0.0100    0.0100    0.0100    0.0100    0.0100    0.0100    0.0100
0.0100    0.0100    0.0100    0.0100    0.0100    0.0100    0.0100    0.0100
0.0100    0.0100    0.0100    0.0100    0.0100    0.0100    0.0100    0.0100
0.0100    0.0100    0.0100    0.0100    0.0100    0.0100    0.0100    0.0100
0.0100    0.0100    0.0100    0.0100    0.0100    0.0100    0.0100    0.0100
0.0100    0.0100    0.0100    0.0100    0.0100    0.0100    0.0100    0.0100
0.0100    0.0100    0.0100    0.0100    0.0100    0.0100    0.0100    0.0100
0.0100    0.0100    0.0100    0.0100    0.0100    0.0100    0.0100    0.0100
0.0100    0.0100    0.0100    0.0100    0.0100    0.0100    0.0100    0.0100
0.0100    0.0100    0.0100    0.0100    0.0100    0.0100    0.0100    0.0100
0.0100    0.0100    0.0100    0.0100    0.0100    0.0100    0.0100    0.0100
0.0100    0.0100    0.0100    0.0100    0.0100    0.0100    0.0100    0.0100
0.0100    0.0100    0.0100    0.0100    0.0100    0.0100    0.0100    0.0100
0.0100    0.0100    0.0100    0.0100    0.0100    0.0100    0.0100    0.0100
0.0100    0.0100    0.0100    0.0100    0.0100    0.0100    0.0100    0.0100
0.0100    0.0100    0.0100    0.0100    0.0100    0.0100    0.0100    0.0100
0.0100    0.0100    0.0100    0.0100    0.0100    0.0100    0.0100    0.0100
0.0100    0.0100    0.0100    0.0100    0.0100    0.0100    0.0100    0.0100
0.0100    0.0100    0.0100    0.0100    0.0100    0.0100    0.0100    0.0100
0.0100    0.0100    0.0100    0.0100    0.0100    0.0100    0.0100    0.0100
0.0100    0.0100    0.0100    0.0100    0.0100    0.0100    0.0100    0.0100
0.0100    0.0100    0.0100    0.0100    0.0100    0.0100    0.0100    0.0100
0.0100    0.0100    0.0100    0.0100    0.0100    0.0100    0.0100    0.0100
0.0100    0.0100    0.0100    0.0100    0.0100    0.0100    0.0100    0.0100
0.0100    0.0100    0.0100    0.0100    0.0100    0.0100    0.0100    0.0100
0.0100    0.0100    0.0100    0.0100    0.0100    0.0100    0.0100    0.0100
0.0100    0.0100    0.0100    0.0100    0.0100    0.0100    0.0100    0.0100
0.0100    0.0100    0.0100    0.0100    0.0100    0.0100    0.0100    0.0100
0.0100    0.0100    0.0100    0.0100    0.0100    0.0100    0.0100    0.0100
0.0100    0.0100    0.0100    0.0100    0.0100    0.0100    0.0100    0.0100
0.0100    0.0100    0.0100    0.0100    0.0100    0.0100    0.0100    0.0100
0.0100    0.0100    0.0100    0.0100    0.0100    0.0100    0.0100    0.0100
0.0100    0.0100    0.0100    0.0100    0.0100    0.0100    0.0100    0.0100
0.0100    0.0100    0.0100    0.0100    0.0100    0.0100    0.0100    0.0100
0.0100    0.0100    0.0100    0.0100    0.0100    0.0100    0.0100    0.0100
0.0100    0.0100    0.0100    0.0100    0.0100    0.0100    0.0100    0.0100
0.0100    0.0100    0.0100    0.0100    0.0100    0.0100    0.0100    0.0100
0.0100    0.0100    0.0100    0.0100    0.0100    0.0100    0.0100    0.0100
0.0100    0.0100    0.0100    0.0100    0.0100    0.0100    0.0100    0.0100
0.0100    0.0100    0.0100    0.0100    0.0100    0.0100    0.0100    0.0100
0.0100    0.0100    0.0100    0.0100    0.0100    0.0100    0.0100    0.0100
0.0100    0.0100    0.0100    0.0100    0.0100    0.0100    0.0100    0.0100
0.0100    0.0100    0.0100    0.0100    0.0100    0.0100    0.0100    0.0100
0.0100    0.0100    0.0100    0.0100    0.0100    0.0100    0.0100    0.0100
0.0100    0.0100    0.0100    0.0100    0.0100    0.0100    0.0100    0.0100
0.0100    0.0100    0.0100    0.0100    0.0100    0.0100    0.0100    0.0100
0.0100    0.0100    0.0100    0.0100    0.0100    0.0100    0.0100    0.0100
0.0100    0.0100    0.0100    0.0100    0.0100    0.0100    0.0100    0.0100
0.0100    0.0100    0.0100    0.0100    0.0100    0.0100    0.0100    0.0100
0.0100    0.0100    0.0100    0.0100    0.0100    0.0100    0.0100    0.0100
0.0100    0.0100    0.0100    0.0100    0.0100    0.0100    0.0100    0.0100
0.0100    0.0100    0.0100    0.0100    0.0100    0.0100    0.0100    0.0100
0.0100    0.0100    0.0100    0.0100    0.0100    0.0100    0.0100    0.0100
0.0100    0.0100    0.0100    0.0100    0.0100    0.0100    0.0100    0.0100
0.0100    0.0100    0.0100    0.0100    0.0100    0.0100    0.0100    0.0100
0.0100    0.0100    0.0100    0.0100    0.0100    0.0100    0.0100    0.0100
0.0100    0.0100    0.0100    0.0100    0.0100    0.0100    0.0100    0.0100
0.0100    0.0100    0.0100    0.0100    0.0100    0.0100    0.0100    0.0100
0.0100    0.0100    0.0100    0.0100    0.0100    0.0100    0.0100    0.0100
0.0100    0.0100    0.0100    0.0100    0.0100    0.0100    0.0100    0.0100
0.0100    0.0100    0.0100    0.0100    0.0100    0.0100    0.0100    0.0100
0.0100    0.0100    0.0100    0.0100    0.0100    0.0100    0.0100    0.0100
0.0100    0.0100    0.0100    0.0100    0.0100    0.0100    0.0100    0.0100
0.0100    0.0100    0.0100    0.0100    0.0100    0.0100    0.0100    0.0100
0.0100    0.0100    0.0100    0.0100    0.0100    0.0100    0.0100    0.0100
0.0100    0.0100    0.0100    0.0100    0.0100    0.0100    0.0100    0.0100
0.0100    0.0100    0.0100    0.0100    0.0100    0.0100    0.0100    0.0100
0.0100    0.0100    0.0100    0.0100    0.0100    0.0100    0.0100    0.0100
0.0100    0.0100    0.0100    0.0100    0.0100    0.0100    0.0100    0.0100
0.0100    0.0100    0.0100    0.0100    0.0100    0.0100    0.0100    0.0100
0.0100    0.0100    0.0100    0.0100    0.0100    0.0100    0.0100    0.0100
0.0100    0.0100    0.0100    0.0100    0.0100    0.0100    0.0100    0.0100
0.0100    0.0100    0.0100    0.0100    0.0100    0.0100    0.0100    0.0100
0.0100    0.0100    0.0100    0.0100    0.0100    0.0100    0.0100    0.0100
0.0100    0.0100    0.0100    0.0100    0.0100    0.0100    0.0100    0.0100
0.0100    0.0100    0.0100    0.0100    0.0100    0.0100    0.0100    0.0100
0.0100    0.0100    0.0100    0.0100    0.0100    0.0100
</PP_RAB>
</PP_MESH>
<PP_LOCAL type="real"  size="1006" columns="4">
-2.2243773543E+01   -2.2242879330E+01   -2.2240197042E+01   -2.2235727750E+01
-2.2229473237E+01   -2.2221435992E+01   -2.2211619210E+01   -2.2200026782E+01
-2.2186663291E+01   -2.2171534005E+01   -2.2154644865E+01   -2.2136002476E+01
-2.2115614094E+01   -2.2093487615E+01   -2.2069631562E+01   -2.2044055068E+01
-2.2016767860E+01   -2.1987780245E+01   -2.1957103090E+01   -2.1924747803E+01
-2.1890726319E+01   -2.1855051072E+01   -2.1817734984E+01   -2.1778791435E+01
-2.1738234251E+01   -2.1696077676E+01   -2.1652336354E+01   -2.1607025305E+01
-2.1560159907E+01   -2.1511755873E+01   -2.1461829230E+01   -2.1410396299E+01
-2.1357473676E+01   -2.1303078210E+01   -2.1247226987E+01   -2.1189937312E+01
-2.1131226689E+01   -2.1071112809E+01   -2.1009613531E+01   -2.0946746871E+01
-2.0882530986E+01   -2.0816984163E+01   -2.0750124809E+01   -2.0681971439E+01
-2.0612542667E+01   -2.0541857203E+01   -2.0469933839E+01   -2.0396791450E+01
-2.0322448984E+01   -2.0246925463E+01   -2.0170239980E+01   -2.0092411695E+01
-2.0013459837E+01   -1.9933403704E+01   -1.9852262667E+01   -1.9770056169E+01
-1.9686803729E+01   -1.9602524952E+01   -1.9517239525E+01   -1.9430967233E+01
-1.9343727960E+01   -1.9255541700E+01   -1.9166428563E+01   -1.9076408788E+01
-1.8985502753E+01   -1.8893730984E+01   -1.8801114170E+01   -1.8707673174E+01
-1.8613429049E+01   -1.8518403049E+01   -1.8422616647E+01   -1.8326091550E+01
-1.8228849714E+01   -1.8130913361E+01   -1.8032304998E+01   -1.7933047431E+01
-1.7833163786E+01   -1.7732677525E+01   -1.7631612459E+01   -1.7529992774E+01
-1.7427843040E+01   -1.7325188228E+01   -1.7222053729E+01   -1.7118465362E+01
-1.7014449389E+01   -1.6910032527E+01   -1.6805241953E+01   -1.6700105312E+01
-1.6594650722E+01   -1.6488906775E+01   -1.6382902532E+01   -1.6276667522E+01
-1.6170231733E+01   -1.6063625599E+01   -1.5956879986E+01   -1.5850026174E+01
-1.5743095832E+01   -1.5636120996E+01   -1.5529134033E+01   -1.5422167617E+01
-1.5315254684E+01   -1.5208428397E+01   -1.5101722104E+01   -1.4995169290E+01
-1.4888803533E+01   -1.4782658448E+01   -1.4676767645E+01   -1.4571164667E+01
-1.4465882941E+01   -1.4360955718E+01   -1.4256416021E+01   -1.4152296585E+01
-1.4048629802E+01   -1.3945447661E+01   -1.3842781693E+01   -1.3740662913E+01
-1.3639121762E+01   -1.3538188054E+01   -1.3437890916E+01   -1.3338258738E+01
-1.3239319113E+01   -1.3141098791E+01   -1.3043623619E+01   -1.2946918496E+01
-1.2851007322E+01   -1.2755912947E+01   -1.2661657126E+01   -1.2568260473E+01
-1.2475742417E+01   -1.2384121159E+01   -1.2293413632E+01   -1.2203635463E+01
-1.2114800933E+01   -1.2026922945E+01   -1.1940012991E+01   -1.1854081114E+01
-1.1769135890E+01   -1.1685184388E+01   -1.1602232151E+01   -1.1520283172E+01
-1.1439339865E+01   -1.1359403048E+01   -1.1280471920E+01   -1.1202544043E+01
-1.1125615334E+01   -1.1049680003E+01   -1.0974730547E+01   -1.0900757874E+01
-1.0827751075E+01   -1.0755698013E+01   -1.0684582834E+01   -1.0614383794E+01
-1.0545074152E+01   -1.0476623481E+01   -1.0409007048E+01   -1.0342207811E+01
-1.0276211687E+01   -1.0211005786E+01   -1.0146574035E+01   -1.0082899174E+01
-1.0019967203E+01   -9.9577651453E+00   -9.8962795383E+00   -9.8354974125E+00
-9.7754064677E+00   -9.7159948343E+00   -9.6572510493E+00   -9.5991640727E+00
-9.5417232642E+00   -9.4849183781E+00   -9.4287395720E+00   -9.3731773118E+00
-9.3182224010E+00   -9.2638659722E+00   -9.2100993231E+00   -9.1569149156E+00
-9.1043070228E+00   -9.0522711658E+00   -9.0008050142E+00   -8.9499060570E+00
-8.8995686519E+00   -8.8497857239E+00   -8.8005495432E+00   -8.7518521617E+00
-8.7036869036E+00   -8.6560481903E+00   -8.6089300568E+00   -8.5623257221E+00
-8.5162284895E+00   -8.4706320594E+00   -8.4255301348E+00   -8.3809163366E+00
-8.3367843038E+00   -8.2931276919E+00   -8.2499401665E+00   -8.2072153970E+00
-8.1649470573E+00   -8.1231288264E+00   -8.0817543898E+00   -8.0408174399E+00
-8.0003116785E+00   -7.9602308191E+00   -7.9205685895E+00   -7.8813187349E+00
-7.8424750215E+00   -7.8040312407E+00   -7.7659812128E+00   -7.7283187915E+00
-7.6910378687E+00   -7.6541323790E+00   -7.6175963047E+00   -7.5814236804E+00
-7.5456085984E+00   -7.5101452134E+00   -7.4750277473E+00   -7.4402504940E+00
-7.4058078243E+00   -7.3716941899E+00   -7.3379041285E+00   -7.3044322670E+00
-7.2712733260E+00   -7.2384221231E+00   -7.2058735760E+00   -7.1736227060E+00
-7.1416646402E+00   -7.1099946138E+00   -7.0786079723E+00   -7.0475001727E+00
-7.0166667853E+00   -6.9861034939E+00   -6.9558060965E+00   -6.9257705058E+00
-6.8959927483E+00   -6.8664689641E+00   -6.8371954058E+00   -6.8081684371E+00
-6.7793845317E+00   -6.7508402706E+00   -6.7225323405E+00   -6.6944575309E+00
-6.6666127316E+00   -6.6389949298E+00   -6.6116012066E+00   -6.5844287338E+00
-6.5574747703E+00   -6.5307366585E+00   -6.5042118202E+00   -6.4778977531E+00
-6.4517920263E+00   -6.4258922769E+00   -6.4001962050E+00   -6.3747015707E+00
-6.3494061892E+00   -6.3243079273E+00   -6.2994046989E+00   -6.2746944620E+00
-6.2501752142E+00   -6.2258449893E+00   -6.2017018540E+00   -6.1777439044E+00
-6.1539692630E+00   -6.1303760758E+00   -6.1069625095E+00   -6.0837267490E+00
-6.0606669950E+00   -6.0377814625E+00   -6.0150683783E+00   -5.9925259799E+00
-5.9701525142E+00   -5.9479462361E+00   -5.9259054082E+00   -5.9040282996E+00
-5.8823131861E+00   -5.8607583497E+00   -5.8393620790E+00   -5.8181226690E+00
-5.7970384218E+00   -5.7761076476E+00   -5.7553286647E+00   -5.7346998008E+00
-5.7142193941E+00   -5.6938857941E+00   -5.6736973630E+00   -5.6536524768E+00
-5.6337495265E+00   -5.6139869194E+00   -5.5943630803E+00   -5.5748764530E+00
-5.5555255009E+00   -5.5363087089E+00   -5.5172245836E+00   -5.4982716550E+00
-5.4794484768E+00   -5.4607536277E+00   -5.4421857113E+00   -5.4237433575E+00
-5.4054252220E+00   -5.3872299874E+00   -5.3691563625E+00   -5.3512030829E+00
-5.3333689104E+00   -5.3156526333E+00   -5.2980530652E+00   -5.2805690452E+00
-5.2631994368E+00   -5.2459431275E+00   -5.2287990277E+00   -5.2117660698E+00
-5.1948432078E+00   -5.1780294152E+00   -5.1613236849E+00   -5.1447250278E+00
-5.1282324712E+00   -5.1118450583E+00   -5.0955618468E+00   -5.0793819076E+00
-5.0633043241E+00   -5.0473281906E+00   -5.0314526117E+00   -5.0156767013E+00
-4.9999995812E+00   -4.9844203812E+00   -4.9689382371E+00   -4.9535522912E+00
-4.9382616909E+00   -4.9230655886E+00   -4.9079631408E+00   -4.8929535084E+00
-4.8780358561E+00   -4.8632093521E+00   -4.8484731683E+00   -4.8338264801E+00
-4.8192684667E+00   -4.8047983112E+00   -4.7904152006E+00   -4.7761183263E+00
-4.7619068847E+00   -4.7477800770E+00   -4.7337371102E+00   -4.7197771972E+00
-4.7058995575E+00   -4.6921034178E+00   -4.6783880122E+00   -4.6647525832E+00
-4.6511963816E+00   -4.6377186678E+00   -4.6243187115E+00   -4.6109957928E+00
-4.5977492020E+00   -4.5845782406E+00   -4.5714822214E+00   -4.5584604685E+00
-4.5455123180E+00   -4.5326371178E+00   -4.5198342281E+00   -4.5071030209E+00
-4.4944428807E+00   -4.4818532035E+00   -4.4693333980E+00   -4.4568828840E+00
-4.4445010932E+00   -4.4321874681E+00   -4.4199414624E+00   -4.4077625402E+00
-4.3956501757E+00   -4.3836038523E+00   -4.3716230629E+00   -4.3597073086E+00
-4.3478560988E+00   -4.3360689504E+00   -4.3243453875E+00   -4.3126849380E+00
-4.3010871371E+00   -4.2895515254E+00   -4.2780776218E+00   -4.2666650098E+00
-4.2553132566E+00   -4.2440219225E+00   -4.2327906252E+00   -4.2216189158E+00
-4.2105061866E+00   -4.1994519383E+00   -4.1884557076E+00   -4.1775168215E+00
-4.1666352540E+00   -4.1558108577E+00   -4.1450434567E+00   -4.1343328919E+00
-4.1236789471E+00   -4.1130811255E+00   -4.1025389300E+00   -4.0920517607E+00
-4.0816192289E+00   -4.0712402947E+00   -4.0609137745E+00   -4.0506386819E+00
-4.0404141283E+00   -4.0302384822E+00   -4.0201124078E+00   -4.0100359614E+00
-4.0000092549E+00   -3.9900325967E+00   -3.9801065087E+00   -3.9702300385E+00
-3.9604027882E+00   -3.9506242920E+00   -3.9408939066E+00   -3.9312110936E+00
-3.9215757020E+00   -3.9119873842E+00   -3.9024458083E+00   -3.8929506897E+00
-3.8835016996E+00   -3.8740984713E+00   -3.8647406731E+00   -3.8554279762E+00
-3.8461600529E+00   -3.8369365813E+00   -3.8277572433E+00   -3.8186217228E+00
-3.8095297069E+00   -3.8004808854E+00   -3.7914749512E+00   -3.7825116001E+00
-3.7735905308E+00   -3.7647114448E+00   -3.7558740464E+00   -3.7470780426E+00