<UPF version="2.0.1">
<PP_INFO>

This pseudopotential file has been produced using the code
ONCVPSP  (Optimized Norm-Conservinng Vanderbilt PSeudopotential)
scalar-relativistic version 3.2.3 08/16/2016 by D. R. Hamann
The code is available through a link at URL www.mat-simresearch.com.
Documentation with the package provides a full discription of the
input data below.


While it is not required under the terms of the GNU GPL, it is
suggested that you cite D. R. Hamann, Phys. Rev. B 88, 085117 (2013)
in any publication using these pseudopotentials.

<PP_INPUTFILE>
# ATOM AND REFERENCE CONFIGURATION
# atsym  z   nc   nv     iexc    psfile
He  2.00    0    1 -116133      upf
#
#   n    l    f        energy (Ha)
1    0    2.00
#
# PSEUDOPOTENTIAL AND OPTIMIZATION
# lmax
1
#
#   l,   rc,      ep,       ncon, nbas, qcut
0   1.25000  -0.56958    4    8   9.40000
1   1.13000   0.05000    4    7   9.40000
#
# LOCAL POTENTIAL
# lloc, lpopt,  rc(5),   dvloc0
4    5   1.00000      0.00000
#
# VANDERBILT-KLEINMAN-BYLANDER PROJECTORs
# l, nproj, debl
0    2   1.00000
1    1   1.00000
#
# MODEL CORE CHARGE
# icmod, fcfact, rcfact
0   0.00000   0.00000
#
# LOG DERIVATIVE ANALYSIS
# epsh1, epsh2, depsh
-12.00   12.00    0.02
#
# OUTPUT GRID
# rlmax, drl
6.00    0.01
#
# TEST CONFIGURATIONS
# ncnf
0
# nvcnf
#   n    l    f
</PP_INPUTFILE>
</PP_INFO>
<!--                               -->
<!-- END OF HUMAN READABLE SECTION -->
<!--                               -->
<PP_HEADER
generated="Generated using ONCVPSP code by D. R. Hamann"
author="anonymous"
date="170120"
comment=""
element="He"
pseudo_type="NC"
relativistic="scalar"
is_ultrasoft="F"
is_paw="F"
is_coulomb="F"
has_so="F"
has_wfc="F"
has_gipaw="F"
core_correction="F"
functional="PBESOL"
z_valence="    2.00"
total_psenergy="  -5.65169421057E+00"
rho_cutoff="   7.31000000000E+00"
l_max="1"
l_local="-1"
mesh_size="   732"
number_of_wfc="1"
number_of_proj="3"/>
<PP_MESH>
<PP_R type="real"  size=" 732" columns="8">
0.0000    0.0100    0.0200    0.0300    0.0400    0.0500    0.0600    0.0700
0.0800    0.0900    0.1000    0.1100    0.1200    0.1300    0.1400    0.1500
0.1600    0.1700    0.1800    0.1900    0.2000    0.2100    0.2200    0.2300
0.2400    0.2500    0.2600    0.2700    0.2800    0.2900    0.3000    0.3100
0.3200    0.3300    0.3400    0.3500    0.3600    0.3700    0.3800    0.3900
0.4000    0.4100    0.4200    0.4300    0.4400    0.4500    0.4600    0.4700
0.4800    0.4900    0.5000    0.5100    0.5200    0.5300    0.5400    0.5500
0.5600    0.5700    0.5800    0.5900    0.6000    0.6100    0.6200    0.6300
0.6400    0.6500    0.6600    0.6700    0.6800    0.6900    0.7000    0.7100
0.7200    0.7300    0.7400    0.7500    0.7600    0.7700    0.7800    0.7900
0.8000    0.8100    0.8200    0.8300    0.8400    0.8500    0.8600    0.8700
0.8800    0.8900    0.9000    0.9100    0.9200    0.9300    0.9400    0.9500
0.9600    0.9700    0.9800    0.9900    1.0000    1.0100    1.0200    1.0300
1.0400    1.0500    1.0600    1.0700    1.0800    1.0900    1.1000    1.1100
1.1200    1.1300    1.1400    1.1500    1.1600    1.1700    1.1800    1.1900
1.2000    1.2100    1.2200    1.2300    1.2400    1.2500    1.2600    1.2700
1.2800    1.2900    1.3000    1.3100    1.3200    1.3300    1.3400    1.3500
1.3600    1.3700    1.3800    1.3900    1.4000    1.4100    1.4200    1.4300
1.4400    1.4500    1.4600    1.4700    1.4800    1.4900    1.5000    1.5100
1.5200    1.5300    1.5400    1.5500    1.5600    1.5700    1.5800    1.5900
1.6000    1.6100    1.6200    1.6300    1.6400    1.6500    1.6600    1.6700
1.6800    1.6900    1.7000    1.7100    1.7200    1.7300    1.7400    1.7500
1.7600    1.7700    1.7800    1.7900    1.8000    1.8100    1.8200    1.8300
1.8400    1.8500    1.8600    1.8700    1.8800    1.8900    1.9000    1.9100
1.9200    1.9300    1.9400    1.9500    1.9600    1.9700    1.9800    1.9900
2.0000    2.0100    2.0200    2.0300    2.0400    2.0500    2.0600    2.0700
2.0800    2.0900    2.1000    2.1100    2.1200    2.1300    2.1400    2.1500
2.1600    2.1700    2.1800    2.1900    2.2000    2.2100    2.2200    2.2300
2.2400    2.2500    2.2600    2.2700    2.2800    2.2900    2.3000    2.3100
2.3200    2.3300    2.3400    2.3500    2.3600    2.3700    2.3800    2.3900
2.4000    2.4100    2.4200    2.4300    2.4400    2.4500    2.4600    2.4700
2.4800    2.4900    2.5000    2.5100    2.5200    2.5300    2.5400    2.5500
2.5600    2.5700    2.5800    2.5900    2.6000    2.6100    2.6200    2.6300
2.6400    2.6500    2.6600    2.6700    2.6800    2.6900    2.7000    2.7100
2.7200    2.7300    2.7400    2.7500    2.7600    2.7700    2.7800    2.7900
2.8000    2.8100    2.8200    2.8300    2.8400    2.8500    2.8600    2.8700
2.8800    2.8900    2.9000    2.9100    2.9200    2.9300    2.9400    2.9500
2.9600    2.9700    2.9800    2.9900    3.0000    3.0100    3.0200    3.0300
3.0400    3.0500    3.0600    3.0700    3.0800    3.0900    3.1000    3.1100
3.1200    3.1300    3.1400    3.1500    3.1600    3.1700    3.1800    3.1900
3.2000    3.2100    3.2200    3.2300    3.2400    3.2500    3.2600    3.2700
3.2800    3.2900    3.3000    3.3100    3.3200    3.3300    3.3400    3.3500
3.3600    3.3700    3.3800    3.3900    3.4000    3.4100    3.4200    3.4300
3.4400    3.4500    3.4600    3.4700    3.4800    3.4900    3.5000    3.5100
3.5200    3.5300    3.5400    3.5500    3.5600    3.5700    3.5800    3.5900
3.6000    3.6100    3.6200    3.6300    3.6400    3.6500    3.6600    3.6700
3.6800    3.6900    3.7000    3.7100    3.7200    3.7300    3.7400    3.7500
3.7600    3.7700    3.7800    3.7900    3.8000    3.8100    3.8200    3.8300
3.8400    3.8500    3.8600    3.8700    3.8800    3.8900    3.9000    3.9100
3.9200    3.9300    3.9400    3.9500    3.9600    3.9700    3.9800    3.9900
4.0000    4.0100    4.0200    4.0300    4.0400    4.0500    4.0600    4.0700
4.0800    4.0900    4.1000    4.1100    4.1200    4.1300    4.1400    4.1500
4.1600    4.1700    4.1800    4.1900    4.2000    4.2100    4.2200    4.2300
4.2400    4.2500    4.2600    4.2700    4.2800    4.2900    4.3000    4.3100
4.3200    4.3300    4.3400    4.3500    4.3600    4.3700    4.3800    4.3900
4.4000    4.4100    4.4200    4.4300    4.4400    4.4500    4.4600    4.4700
4.4800    4.4900    4.5000    4.5100    4.5200    4.5300    4.5400    4.5500
4.5600    4.5700    4.5800    4.5900    4.6000    4.6100    4.6200    4.6300
4.6400    4.6500    4.6600    4.6700    4.6800    4.6900    4.7000    4.7100
4.7200    4.7300    4.7400    4.7500    4.7600    4.7700    4.7800    4.7900
4.8000    4.8100    4.8200    4.8300    4.8400    4.8500    4.8600    4.8700
4.8800    4.8900    4.9000    4.9100    4.9200    4.9300    4.9400    4.9500
4.9600    4.9700    4.9800    4.9900    5.0000    5.0100    5.0200    5.0300
5.0400    5.0500    5.0600    5.0700    5.0800    5.0900    5.1000    5.1100
5.1200    5.1300    5.1400    5.1500    5.1600    5.1700    5.1800    5.1900
5.2000    5.2100    5.2200    5.2300    5.2400    5.2500    5.2600    5.2700
5.2800    5.2900    5.3000    5.3100    5.3200    5.3300    5.3400    5.3500
5.3600    5.3700    5.3800    5.3900    5.4000    5.4100    5.4200    5.4300
5.4400    5.4500    5.4600    5.4700    5.4800    5.4900    5.5000    5.5100
5.5200    5.5300    5.5400    5.5500    5.5600    5.5700    5.5800    5.5900
5.6000    5.6100    5.6200    5.6300    5.6400    5.6500    5.6600    5.6700
5.6800    5.6900    5.7000    5.7100    5.7200    5.7300    5.7400    5.7500
5.7600    5.7700    5.7800    5.7900    5.8000    5.8100    5.8200    5.8300
5.8400    5.8500    5.8600    5.8700    5.8800    5.8900    5.9000    5.9100
5.9200    5.9300    5.9400    5.9500    5.9600    5.9700    5.9800    5.9900
6.0000    6.0100    6.0200    6.0300    6.0400    6.0500    6.0600    6.0700
6.0800    6.0900    6.1000    6.1100    6.1200    6.1300    6.1400    6.1500
6.1600    6.1700    6.1800    6.1900    6.2000    6.2100    6.2200    6.2300
6.2400    6.2500    6.2600    6.2700    6.2800    6.2900    6.3000    6.3100
6.3200    6.3300    6.3400    6.3500    6.3600    6.3700    6.3800    6.3900
6.4000    6.4100    6.4200    6.4300    6.4400    6.4500    6.4600    6.4700
6.4800    6.4900    6.5000    6.5100    6.5200    6.5300    6.5400    6.5500
6.5600    6.5700    6.5800    6.5900    6.6000    6.6100    6.6200    6.6300
6.6400    6.6500    6.6600    6.6700    6.6800    6.6900    6.7000    6.7100
6.7200    6.7300    6.7400    6.7500    6.7600    6.7700    6.7800    6.7900
6.8000    6.8100    6.8200    6.8300    6.8400    6.8500    6.8600    6.8700
6.8800    6.8900    6.9000    6.9100    6.9200    6.9300    6.9400    6.9500
6.9600    6.9700    6.9800    6.9900    7.0000    7.0100    7.0200    7.0300
7.0400    7.0500    7.0600    7.0700    7.0800    7.0900    7.1000    7.1100
7.1200    7.1300    7.1400    7.1500    7.1600    7.1700    7.1800    7.1900
7.2000    7.2100    7.2200    7.2300    7.2400    7.2500    7.2600    7.2700
7.2800    7.2900    7.3000    7.3100
</PP_R>
<PP_RAB type="real"  size=" 732" columns="8">
0.0100    0.0100    0.0100    0.0100    0.0100    0.0100    0.0100    0.0100
0.0100    0.0100    0.0100    0.0100    0.0100    0.0100    0.0100    0.0100
0.0100    0.0100    0.0100    0.0100    0.0100    0.0100    0.0100    0.0100
0.0100    0.0100    0.0100    0.0100    0.0100    0.0100    0.0100    0.0100
0.0100    0.0100    0.0100    0.0100    0.0100    0.0100    0.0100    0.0100
0.0100    0.0100    0.0100    0.0100    0.0100    0.0100    0.0100    0.0100
0.0100    0.0100    0.0100    0.0100    0.0100    0.0100    0.0100    0.0100
0.0100    0.0100    0.0100    0.0100    0.0100    0.0100    0.0100    0.0100
0.0100    0.0100    0.0100    0.0100    0.0100    0.0100    0.0100    0.0100
0.0100    0.0100    0.0100    0.0100    0.0100    0.0100    0.0100    0.0100
0.0100    0.0100    0.0100    0.0100    0.0100    0.0100    0.0100    0.0100
0.0100    0.0100    0.0100    0.0100    0.0100    0.0100    0.0100    0.0100
0.0100    0.0100    0.0100    0.0100    0.0100    0.0100    0.0100    0.0100
0.0100    0.0100    0.0100    0.0100    0.0100    0.0100    0.0100    0.0100
0.0100    0.0100    0.0100    0.0100    0.0100    0.0100    0.0100    0.0100
0.0100    0.0100    0.0100    0.0100    0.0100    0.0100    0.0100    0.0100
0.0100    0.0100    0.0100    0.0100    0.0100    0.0100    0.0100    0.0100
0.0100    0.0100    0.0100    0.0100    0.0100    0.0100    0.0100    0.0100
0.0100    0.0100    0.0100    0.0100    0.0100    0.0100    0.0100    0.0100
0.0100    0.0100    0.0100    0.0100    0.0100    0.0100    0.0100    0.0100
0.0100    0.0100    0.0100    0.0100    0.0100    0.0100    0.0100    0.0100
0.0100    0.0100    0.0100    0.0100    0.0100    0.0100    0.0100    0.0100
0.0100    0.0100    0.0100    0.0100    0.0100    0.0100    0.0100    0.0100
0.0100    0.0100    0.0100    0.0100    0.0100    0.0100    0.0100    0.0100
0.0100    0.0100    0.0100    0.0100    0.0100    0.0100    0.0100    0.0100
0.0100    0.0100    0.0100    0.0100    0.0100    0.0100    0.0100    0.0100
0.0100    0.0100    0.0100    0.0100    0.0100    0.0100    0.0100    0.0100
0.0100    0.0100    0.0100    0.0100    0.0100    0.0100    0.0100    0.0100
0.0100    0.0100    0.0100    0.0100    0.0100    0.0100    0.0100    0.0100
0.0100    0.0100    0.0100    0.0100    0.0100    0.0100    0.0100    0.0100
0.0100    0.0100    0.0100    0.0100    0.0100    0.0100    0.0100    0.0100
0.0100    0.0100    0.0100    0.0100    0.0100    0.0100    0.0100    0.0100
0.0100    0.0100    0.0100    0.0100    0.0100    0.0100    0.0100    0.0100
0.0100    0.0100    0.0100    0.0100    0.0100    0.0100    0.0100    0.0100
0.0100    0.0100    0.0100    0.0100    0.0100    0.0100    0.0100    0.0100
0.0100    0.0100    0.0100    0.0100    0.0100    0.0100    0.0100    0.0100
0.0100    0.0100    0.0100    0.0100    0.0100    0.0100    0.0100    0.0100
0.0100    0.0100    0.0100    0.0100    0.0100    0.0100    0.0100    0.0100
0.0100    0.0100    0.0100    0.0100    0.0100    0.0100    0.0100    0.0100
0.0100    0.0100    0.0100    0.0100    0.0100    0.0100    0.0100    0.0100
0.0100    0.0100    0.0100    0.0100    0.0100    0.0100    0.0100    0.0100
0.0100    0.0100    0.0100    0.0100    0.0100    0.0100    0.0100    0.0100
0.0100    0.0100    0.0100    0.0100    0.0100    0.0100    0.0100    0.0100
0.0100    0.0100    0.0100    0.0100    0.0100    0.0100    0.0100    0.0100
0.0100    0.0100    0.0100    0.0100    0.0100    0.0100    0.0100    0.0100
0.0100    0.0100    0.0100    0.0100    0.0100    0.0100    0.0100    0.0100
0.0100    0.0100    0.0100    0.0100    0.0100    0.0100    0.0100    0.0100
0.0100    0.0100    0.0100    0.0100    0.0100    0.0100    0.0100    0.0100
0.0100    0.0100    0.0100    0.0100    0.0100    0.0100    0.0100    0.0100
0.0100    0.0100    0.0100    0.0100    0.0100    0.0100    0.0100    0.0100
0.0100    0.0100    0.0100    0.0100    0.0100    0.0100    0.0100    0.0100
0.0100    0.0100    0.0100    0.0100    0.0100    0.0100    0.0100    0.0100
0.0100    0.0100    0.0100    0.0100    0.0100    0.0100    0.0100    0.0100
0.0100    0.0100    0.0100    0.0100    0.0100    0.0100    0.0100    0.0100
0.0100    0.0100    0.0100    0.0100    0.0100    0.0100    0.0100    0.0100
0.0100    0.0100    0.0100    0.0100    0.0100    0.0100    0.0100    0.0100
0.0100    0.0100    0.0100    0.0100    0.0100    0.0100    0.0100    0.0100
0.0100    0.0100    0.0100    0.0100    0.0100    0.0100    0.0100    0.0100
0.0100    0.0100    0.0100    0.0100    0.0100    0.0100    0.0100    0.0100
0.0100    0.0100    0.0100    0.0100    0.0100    0.0100    0.0100    0.0100
0.0100    0.0100    0.0100    0.0100    0.0100    0.0100    0.0100    0.0100
0.0100    0.0100    0.0100    0.0100    0.0100    0.0100    0.0100    0.0100
0.0100    0.0100    0.0100    0.0100    0.0100    0.0100    0.0100    0.0100
0.0100    0.0100    0.0100    0.0100    0.0100    0.0100    0.0100    0.0100
0.0100    0.0100    0.0100    0.0100    0.0100    0.0100    0.0100    0.0100
0.0100    0.0100    0.0100    0.0100    0.0100    0.0100    0.0100    0.0100
0.0100    0.0100    0.0100    0.0100    0.0100    0.0100    0.0100    0.0100
0.0100    0.0100    0.0100    0.0100    0.0100    0.0100    0.0100    0.0100
0.0100    0.0100    0.0100    0.0100    0.0100    0.0100    0.0100    0.0100
0.0100    0.0100    0.0100    0.0100    0.0100    0.0100    0.0100    0.0100
0.0100    0.0100    0.0100    0.0100    0.0100    0.0100    0.0100    0.0100
0.0100    0.0100    0.0100    0.0100    0.0100    0.0100    0.0100    0.0100
0.0100    0.0100    0.0100    0.0100    0.0100    0.0100    0.0100    0.0100
0.0100    0.0100    0.0100    0.0100    0.0100    0.0100    0.0100    0.0100
0.0100    0.0100    0.0100    0.0100    0.0100    0.0100    0.0100    0.0100
0.0100    0.0100    0.0100    0.0100    0.0100    0.0100    0.0100    0.0100
0.0100    0.0100    0.0100    0.0100    0.0100    0.0100    0.0100    0.0100
0.0100    0.0100    0.0100    0.0100    0.0100    0.0100    0.0100    0.0100
0.0100    0.0100    0.0100    0.0100    0.0100    0.0100    0.0100    0.0100
0.0100    0.0100    0.0100    0.0100    0.0100    0.0100    0.0100    0.0100
0.0100    0.0100    0.0100    0.0100    0.0100    0.0100    0.0100    0.0100
0.0100    0.0100    0.0100    0.0100    0.0100    0.0100    0.0100    0.0100
0.0100    0.0100    0.0100    0.0100    0.0100    0.0100    0.0100    0.0100
0.0100    0.0100    0.0100    0.0100    0.0100    0.0100    0.0100    0.0100
0.0100    0.0100    0.0100    0.0100    0.0100    0.0100    0.0100    0.0100
0.0100    0.0100    0.0100    0.0100    0.0100    0.0100    0.0100    0.0100
0.0100    0.0100    0.0100    0.0100    0.0100    0.0100    0.0100    0.0100
0.0100    0.0100    0.0100    0.0100    0.0100    0.0100    0.0100    0.0100
0.0100    0.0100    0.0100    0.0100    0.0100    0.0100    0.0100    0.0100
0.0100    0.0100    0.0100    0.0100    0.0100    0.0100    0.0100    0.0100
0.0100    0.0100    0.0100    0.0100    0.0100    0.0100    0.0100    0.0100
0.0100    0.0100    0.0100    0.0100
</PP_RAB>
</PP_MESH>
<PP_LOCAL type="real"  size=" 732" columns="4">
-8.8418445632E+00   -8.8406932409E+00   -8.8372417988E+00   -8.8314985271E+00
-8.8234770671E+00   -8.8131962844E+00   -8.8006800688E+00   -8.7859570758E+00
-8.7690604234E+00   -8.7500273530E+00   -8.7288988631E+00   -8.7057193226E+00
-8.6805360739E+00   -8.6533990321E+00   -8.6243602895E+00   -8.5934737303E+00
-8.5607946626E+00   -8.5263794714E+00   -8.4902852974E+00   -8.4525697432E+00
-8.4132906089E+00   -8.3725056583E+00   -8.3302724148E+00   -8.2866479866E+00
-8.2416889201E+00   -8.1954510790E+00   -8.1479895477E+00   -8.0993585561E+00
-8.0496114230E+00   -7.9988005175E+00   -7.9469772329E+00   -7.8941919739E+00
-7.8404941528E+00   -7.7859321942E+00   -7.7305535445E+00   -7.6744046880E+00
-7.6175311641E+00   -7.5599775886E+00   -7.5017876747E+00   -7.4430042558E+00
-7.3836693081E+00   -7.3238239722E+00   -7.2635085753E+00   -7.2027626518E+00
-7.1416249634E+00   -7.0801335191E+00   -7.0183255934E+00   -6.9562377450E+00
-6.8939058343E+00   -6.8313650411E+00   -6.7686498820E+00   -6.7057942275E+00
-6.6428313194E+00   -6.5797937884E+00   -6.5167136708E+00   -6.4536224270E+00
-6.3905509580E+00   -6.3275296235E+00   -6.2645882583E+00   -6.2017561888E+00
-6.1390622489E+00   -6.0765347939E+00   -6.0142017137E+00   -5.9520904440E+00
-5.8902279752E+00   -5.8286408581E+00   -5.7673552081E+00   -5.7063967048E+00
-5.6457905880E+00   -5.5855616507E+00   -5.5257342272E+00   -5.4663321768E+00
-5.4073788631E+00   -5.3488971294E+00   -5.2909092686E+00   -5.2334369891E+00
-5.1765013766E+00   -5.1201228516E+00   -5.0643211234E+00   -5.0091151398E+00
-4.9545230348E+00   -4.9005620731E+00   -4.8472485916E+00   -4.7945979407E+00
-4.7426244223E+00   -4.6913412278E+00   -4.6407603748E+00   -4.5908926439E+00
-4.5417475148E+00   -4.4933331022E+00   -4.4456560925E+00   -4.3987216793E+00
-4.3525335003E+00   -4.3070935728E+00   -4.2624022289E+00   -4.2184580506E+00
-4.1752578027E+00   -4.1327963642E+00   -4.0910666569E+00   -4.0500595707E+00
-4.0097639164E+00   -3.9701662180E+00   -3.9312511664E+00   -3.8930032417E+00
-3.8554081458E+00   -3.8184527816E+00   -3.7821251483E+00   -3.7464142697E+00
-3.7113101070E+00   -3.6768034645E+00   -3.6428858923E+00   -3.6095495837E+00
-3.5767872679E+00   -3.5445920996E+00   -3.5129575455E+00   -3.4818772692E+00
-3.4513450152E+00   -3.4213544947E+00   -3.3918992735E+00   -3.3629726708E+00
-3.3345676612E+00   -3.3066767436E+00   -3.2792918838E+00   -3.2524046825E+00
-3.2260067303E+00   -3.2000883488E+00   -3.1746349735E+00   -3.1496211731E+00
-3.1250171083E+00   -3.1007959997E+00   -3.0769445708E+00   -3.0534555370E+00
-3.0303228949E+00   -3.0075385368E+00   -2.9850940181E+00   -2.9629820092E+00
-2.9411952031E+00   -2.9197264529E+00   -2.8985688471E+00   -2.8777156710E+00
-2.8571604006E+00   -2.8368966975E+00   -2.8169184015E+00   -2.7972195251E+00
-2.7777942467E+00   -2.7586369057E+00   -2.7397419964E+00   -2.7211041628E+00
-2.7027181940E+00   -2.6845790185E+00   -2.6666817006E+00   -2.6490214349E+00
-2.6315935426E+00   -2.6143934674E+00   -2.5974167712E+00   -2.5806591302E+00
-2.5641163320E+00   -2.5477842711E+00   -2.5316589460E+00   -2.5157364560E+00
-2.5000129979E+00   -2.4844848630E+00   -2.4691484339E+00   -2.4540001825E+00
-2.4390366662E+00   -2.4242545263E+00   -2.4096504847E+00   -2.3952213421E+00
-2.3809639752E+00   -2.3668753347E+00   -2.3529524430E+00   -2.3391923922E+00
-2.3255923421E+00   -2.3121495179E+00   -2.2988612089E+00   -2.2857247662E+00
-2.2727376012E+00   -2.2598971838E+00   -2.2472010405E+00   -2.2346467535E+00
-2.2222319584E+00   -2.2099543432E+00   -2.1978116467E+00   -2.1858016571E+00
-2.1739222108E+00   -2.1621711908E+00   -2.1505465257E+00   -2.1390461884E+00
-2.1276681951E+00   -2.1164106037E+00   -2.1052715132E+00   -2.0942490623E+00
-2.0833414287E+00   -2.0725468275E+00   -2.0618635108E+00   -2.0512897668E+00
-2.0408239181E+00   -2.0304643218E+00   -2.0202093681E+00   -2.0100574794E+00
-2.0000071098E+00   -1.9900567441E+00   -1.9802048971E+00   -1.9704501130E+00
-1.9607909644E+00   -1.9512260517E+00   -1.9417540027E+00   -1.9323734716E+00
-1.9230831383E+00   -1.9138817082E+00   -1.9047679114E+00   -1.8957405019E+00
-1.8867982572E+00   -1.8779399779E+00   -1.8691644869E+00   -1.8604706292E+00
-1.8518572708E+00   -1.8433232991E+00   -1.8348676214E+00   -1.8264891654E+00
-1.8181868780E+00   -1.8099597254E+00   -1.8018066921E+00   -1.7937267812E+00
-1.7857190132E+00   -1.7777824264E+00   -1.7699160759E+00   -1.7621190334E+00
-1.7543903871E+00   -1.7467292409E+00   -1.7391347144E+00   -1.7316059425E+00
-1.7241420749E+00   -1.7167422759E+00   -1.7094057242E+00   -1.7021316123E+00
-1.6949191466E+00   -1.6877675467E+00   -1.6806760454E+00   -1.6736438883E+00
-1.6666703337E+00   -1.6597546521E+00   -1.6528961260E+00   -1.6460940497E+00
-1.6393477294E+00   -1.6326564822E+00   -1.6260196365E+00   -1.6194365315E+00
-1.6129065172E+00   -1.6064289540E+00   -1.6000032123E+00   -1.5936286729E+00
-1.5873047261E+00   -1.5810307721E+00   -1.5748062203E+00   -1.5686304896E+00
-1.5625030078E+00   -1.5564232117E+00   -1.5503905468E+00   -1.5444044671E+00
-1.5384644352E+00   -1.5325699218E+00   -1.5267204055E+00   -1.5209153732E+00
-1.5151543193E+00   -1.5094367459E+00   -1.5037621626E+00   -1.4981300864E+00
-1.4925400415E+00   -1.4869915590E+00   -1.4814841772E+00   -1.4760174411E+00
-1.4705909022E+00   -1.4652041190E+00   -1.4598566560E+00   -1.4545480843E+00
-1.4492779812E+00   -1.4440459301E+00   -1.4388515202E+00   -1.4336943468E+00
-1.4285740110E+00   -1.4234901193E+00   -1.4184422842E+00   -1.4134301234E+00
-1.4084532599E+00   -1.4035113223E+00   -1.3986039441E+00   -1.3937307642E+00
-1.3888914261E+00   -1.3840855787E+00   -1.3793128755E+00   -1.3745729747E+00
-1.3698655393E+00   -1.3651902369E+00   -1.3605467396E+00   -1.3559347239E+00
-1.3513538708E+00   -1.3468038654E+00   -1.3422843972E+00   -1.3377951598E+00
-1.3333358509E+00   -1.3289061721E+00   -1.3245058291E+00   -1.3201345314E+00
-1.3157919924E+00   -1.3114779292E+00   -1.3071920626E+00   -1.3029341171E+00
-1.2987038207E+00   -1.2945009049E+00   -1.2903251048E+00   -1.2861761588E+00
-1.2820538086E+00   -1.2779577993E+00   -1.2738878794E+00   -1.2698438001E+00
-1.2658253164E+00   -1.2618321858E+00   -1.2578641693E+00   -1.2539210305E+00
-1.2500025364E+00   -1.2461084565E+00   -1.2422385634E+00   -1.2383926324E+00
-1.2345704417E+00   -1.2307717721E+00   -1.2269964072E+00   -1.2232441330E+00
-1.2195147385E+00   -1.2158080150E+00   -1.2121237564E+00   -1.2084617591E+00
-1.2048218219E+00   -1.2012037460E+00   -1.1976073352E+00   -1.1940323954E+00
-1.1904787348E+00   -1.1869461641E+00   -1.1834344960E+00   -1.1799435456E+00
-1.1764731300E+00   -1.1730230687E+00   -1.1695931830E+00   -1.1661832965E+00
-1.1627932348E+00   -1.1594228254E+00   -1.1560718980E+00   -1.1527402842E+00
-1.1494278174E+00   -1.1461343331E+00   -1.1428596686E+00   -1.1396036629E+00
-1.1363661571E+00   -1.1331469939E+00   -1.1299460180E+00   -1.1267630755E+00
-1.1235980146E+00   -1.1204506850E+00   -1.1173209381E+00   -1.1142086269E+00
-1.1111136061E+00   -1.1080357321E+00   -1.1049748628E+00   -1.1019308576E+00
-1.0989035776E+00   -1.0958928853E+00   -1.0928986446E+00   -1.0899207212E+00
-1.0869589820E+00   -1.0840132954E+00   -1.0810835313E+00   -1.0781695609E+00
-1.0752712569E+00   -1.0723884932E+00   -1.0695211452E+00   -1.0666690896E+00
-1.0638322044E+00   -1.0610103688E+00   -1.0582034634E+00   -1.0554113700E+00
-1.0526339717E+00   -1.0498711528E+00   -1.0471227988E+00   -1.0443887963E+00
-1.0416690333E+00   -1.0389633988E+00   -1.0362717831E+00   -1.0335940773E+00
-1.0309301740E+00   -1.0282799668E+00   -1.0256433502E+00   -1.0230202201E+00
-1.0204104731E+00   -1.0178140072E+00   -1.0152307212E+00   -1.0126605150E+00
-1.0101032895E+00   -1.0075589466E+00   -1.0050273893E+00   -1.0025085214E+00
-1.0000022478E+00   -9.9750847409E-01   -9.9502710716E-01   -9.9255805461E-01
-9.9010122498E-01   -9.8765652776E-01   -9.8522387327E-01   -9.8280317277E-01
-9.8039433836E-01   -9.7799728299E-01   -9.7561192049E-01   -9.7323816551E-01
-9.7087593352E-01   -9.6852514083E-01   -9.6618570454E-01   -9.6385754256E-01
-9.6154057359E-01   -9.5923471711E-01   -9.5693989335E-01   -9.5465602333E-01
-9.5238302882E-01   -9.5012083230E-01   -9.4786935703E-01   -9.4562852696E-01
-9.4339826677E-01   -9.4117850187E-01   -9.3896915833E-01   -9.3677016294E-01
-9.3458144318E-01   -9.3240292717E-01   -9.3023454374E-01   -9.2807622236E-01
-9.2592789315E-01   -9.2378948689E-01   -9.2166093498E-01   -9.1954216947E-01
-9.1743312301E-01   -9.1533372890E-01   -9.1324392101E-01   -9.1116363384E-01
-9.0909280248E-01   -9.0703136259E-01   -9.0497925045E-01   -9.0293640289E-01
-9.0090275730E-01   -8.9887825165E-01   -8.9686282446E-01   -8.9485641481E-01
-8.9285896231E-01   -8.9087040711E-01   -8.8889068991E-01   -8.8691975191E-01
-8.8495753483E-01   -8.8300398094E-01   -8.8105903299E-01   -8.7912263423E-01
-8.7719472842E-01   -8.7527525980E-01   -8.7336417312E-01   -8.7146141359E-01
-8.6956692691E-01   -8.6768065923E-01   -8.6580255720E-01   -8.6393256789E-01
-8.6207063886E-01   -8.6021671811E-01   -8.5837075408E-01   -8.5653269566E-01
-8.5470249218E-01   -8.5288009339E-01   -8.5106544946E-01   -8.4925851102E-01
-8.4745922908E-01   -8.4566755509E-01   -8.4388344089E-01   -8.4210683874E-01
-8.4033770129E-01   -8.3857598159E-01   -8.3682163310E-01   -8.3507460965E-01
-8.3333486545E-01   -8.3160235510E-01   -8.2987703359E-01   -8.2815885626E-01
-8.2644777882E-01   -8.2474375738E-01   -8.2304674835E-01   -8.2135670857E-01
-8.1967359516E-01   -8.1799736566E-01   -8.1632797790E-01   -8.1466539009E-01
-8.1300956076E-01   -8.1136044880E-01   -8.0971801339E-01   -8.0808221409E-01
-8.0645301075E-01   -8.0483036356E-01   -8.0321423303E-01   -8.0160457997E-01
-8.0000136553E-01   -7.9840455115E-01   -7.9681409857E-01   -7.9522996987E-01
-7.9365212739E-01   -7.9208053380E-01   -7.9051515204E-01   -7.8895594536E-01
-7.8740287729E-01   -7.8585591165E-01   -7.8431501255E-01   -7.8278014437E-01
-7.8125127178E-01   -7.7972835970E-01   -7.7821137336E-01   -7.7670027824E-01
-7.7519504007E-01   -7.7369562489E-01   -7.7220199895E-01   -7.7071412881E-01
-7.6923198125E-01   -7.6775552333E-01   -7.6628472234E-01   -7.6481954583E-01
-7.6335996161E-01   -7.6190593771E-01   -7.6045744244E-01   -7.5901444430E-01
-7.5757691208E-01   -7.5614481477E-01   -7.5471812160E-01   -7.5329680206E-01
-7.5188082583E-01   -7.5047016284E-01   -7.4906478324E-01   -7.4766465741E-01
-7.4626975594E-01   -7.4488004964E-01   -7.4349550954E-01   -7.4211610690E-01
-7.4074181316E-01   -7.3937260000E-01   -7.3800843930E-01   -7.3664930314E-01
-7.3529516382E-01   -7.3394599383E-01   -7.3260176586E-01   -7.3126245281E-01
-7.2992802778E-01   -7.2859846405E-01   -7.2727373511E-01   -7.2595381464E-01
-7.2463867649E-01   -7.2332829474E-01   -7.2202264361E-01   -7.2072169755E-01
-7.1942543116E-01   -7.1813381924E-01   -7.1684683676E-01   -7.1556445889E-01
-7.1428666094E-01   -7.1301341844E-01   -7.1174470706E-01   -7.1048050267E-01
-7.0922078128E-01   -7.0796551909E-01   -7.0671469247E-01   -7.0546827794E-01
-7.0422625222E-01   -7.0298859215E-01   -7.0175527476E-01   -7.0052627723E-01
-6.9930157691E-01   -6.9808115130E-01   -6.9686497805E-01   -6.9565303498E-01
-6.9444530006E-01   -6.9324175141E-01   -6.9204236731E-01   -6.9084712616E-01
-6.8965600655E-01   -6.8846898719E-01   -6.8728604694E-01   -6.8610716483E-01
-6.8493231999E-01   -6.8376149173E-01   -6.8259465948E-01   -6.8143180283E-01
-6.8027290148E-01   -6.7911793529E-01   -6.7796688426E-01   -6.7681972850E-01
-6.7567644828E-01   -6.7453702400E-01   -6.7340143617E-01   -6.7226966546E-01
-6.7114169265E-01   -6.7001749865E-01   -6.6889706452E-01   -6.6778037141E-01
-6.6666740062E-01   -6.6555813358E-01   -6.6445255182E-01   -6.6335063701E-01
-6.6225237094E-01   -6.6115773551E-01   -6.6006671276E-01   -6.5897928482E-01
-6.5789543395E-01   -6.5681514255E-01   -6.5573839309E-01   -6.5466516820E-01
-6.5359545059E-01   -6.5252922310E-01   -6.5146646867E-01   -6.5040717037E-01
-6.4935131136E-01   -6.4829887492E-01   -6.4724984444E-01   -6.4620420340E-01
-6.4516193542E-01   -6.4412302418E-01   -6.4308745351E-01   -6.4205520731E-01
-6.4102626961E-01   -6.4000062452E-01   -6.3897825627E-01   -6.3795914917E-01
-6.3694328764E-01   -6.3593065621E-01   -6.3492123950E-01   -6.3391502221E-01
-6.3291198917E-01   -6.3191212529E-01   -6.3091541556E-01   -6.2992184508E-01
-6.2893139905E-01   -6.2794406276E-01   -6.2695982157E-01   -6.2597866096E-01
-6.2500056649E-01   -6.2402552381E-01   -6.2305351866E-01   -6.2208453686E-01
-6.2111856433E-01   -6.2015558708E-01   -6.1919559120E-01   -6.1823856285E-01
-6.1728448831E-01   -6.1633335391E-01   -6.1538514610E-01   -6.1443985137E-01
-6.1349745634E-01   -6.1255794767E-01   -6.1162131213E-01   -6.1068753655E-01
-6.0975660786E-01   -6.0882851306E-01   -6.0790323923E-01   -6.0698077352E-01
-6.0606110317E-01   -6.0514421550E-01   -6.0423009789E-01   -6.0331873782E-01
-6.0241012281E-01   -6.0150424049E-01   -6.0060107855E-01   -5.9970062475E-01
-5.9880286693E-01   -5.9790779300E-01   -5.9701539094E-01   -5.9612564881E-01
-5.9523855474E-01   -5.9435409691E-01   -5.9347226359E-01   -5.9259304313E-01
-5.9171642392E-01   -5.9084239443E-01   -5.8997094322E-01   -5.8910205888E-01
-5.8823573009E-01   -5.8737194559E-01   -5.8651069420E-01   -5.8565196479E-01
-5.8479574629E-01   -5.8394202770E-01   -5.8309079810E-01   -5.8224204662E-01
-5.8139576245E-01   -5.8055193485E-01   -5.7971055313E-01   -5.7887160668E-01
-5.7803508494E-01   -5.7720097741E-01   -5.7636927366E-01   -5.7553996332E-01
-5.7471303605E-01   -5.7388848162E-01   -5.7306628981E-01   -5.7224645050E-01
-5.7142895359E-01   -5.7061378906E-01   -5.6980094695E-01   -5.6899041734E-01
-5.6818219038E-01   -5.6737625628E-01   -5.6657260528E-01   -5.6577122770E-01