<UPF version="2.0.1">
<PP_INFO>

This pseudopotential file has been produced using the code
ONCVPSP  (Optimized Norm-Conservinng Vanderbilt PSeudopotential)
scalar-relativistic version 3.2.3 08/16/2016 by D. R. Hamann
The code is available through a link at URL www.mat-simresearch.com.
Documentation with the package provides a full discription of the
input data below.


While it is not required under the terms of the GNU GPL, it is
suggested that you cite D. R. Hamann, Phys. Rev. B 88, 085117 (2013)
in any publication using these pseudopotentials.

<PP_INPUTFILE>
# ATOM AND REFERENCE CONFIGURATION
# atsym  z   nc   nv     iexc    psfile
Ar 18.00    3    2   -1012      upf
#
#   n    l    f        energy (Ha)
1    0    2.00
2    0    2.00
2    1    6.00
3    0    2.00
3    1    6.00
#
# PSEUDOPOTENTIAL AND OPTIMIZATION
# lmax
2
#
#   l,   rc,      ep,       ncon, nbas, qcut
0   1.55000  -0.89165    4    8   8.20000
1   1.55000  -0.38163    4    8   8.20000
2   1.55000   0.10000    4    8   8.20000
#
# LOCAL POTENTIAL
# lloc, lpopt,  rc(5),   dvloc0
4    5   1.50000      0.00000
#
# VANDERBILT-KLEINMAN-BYLANDER PROJECTORs
# l, nproj, debl
0    2   1.50000
1    2   1.50000
2    2   1.00000
#
# MODEL CORE CHARGE
# icmod, fcfact, rcfact
3   7.00000   1.25000
#
# LOG DERIVATIVE ANALYSIS
# epsh1, epsh2, depsh
-12.00   12.00    0.02
#
# OUTPUT GRID
# rlmax, drl
4.00    0.01
#
# TEST CONFIGURATIONS
# ncnf
0
# nvcnf
#   n    l    f
</PP_INPUTFILE>
</PP_INFO>
<!--                               -->
<!-- END OF HUMAN READABLE SECTION -->
<!--                               -->
<PP_HEADER
generated="Generated using ONCVPSP code by D. R. Hamann"
author="anonymous"
date="170124"
comment=""
element="Ar"
pseudo_type="NC"
relativistic="scalar"
is_ultrasoft="F"
is_paw="F"
is_coulomb="F"
has_so="F"
has_wfc="F"
has_gipaw="F"
core_correction="T"
functional="SLA  PW   NOGX NOGC"
z_valence="    8.00"
total_psenergy="  -4.23887602418E+01"
rho_cutoff="   9.25000000000E+00"
l_max="2"
l_local="-1"
mesh_size="   926"
number_of_wfc="2"
number_of_proj="6"/>
<PP_MESH>
<PP_R type="real"  size=" 926" columns="8">
0.0000    0.0100    0.0200    0.0300    0.0400    0.0500    0.0600    0.0700
0.0800    0.0900    0.1000    0.1100    0.1200    0.1300    0.1400    0.1500
0.1600    0.1700    0.1800    0.1900    0.2000    0.2100    0.2200    0.2300
0.2400    0.2500    0.2600    0.2700    0.2800    0.2900    0.3000    0.3100
0.3200    0.3300    0.3400    0.3500    0.3600    0.3700    0.3800    0.3900
0.4000    0.4100    0.4200    0.4300    0.4400    0.4500    0.4600    0.4700
0.4800    0.4900    0.5000    0.5100    0.5200    0.5300    0.5400    0.5500
0.5600    0.5700    0.5800    0.5900    0.6000    0.6100    0.6200    0.6300
0.6400    0.6500    0.6600    0.6700    0.6800    0.6900    0.7000    0.7100
0.7200    0.7300    0.7400    0.7500    0.7600    0.7700    0.7800    0.7900
0.8000    0.8100    0.8200    0.8300    0.8400    0.8500    0.8600    0.8700
0.8800    0.8900    0.9000    0.9100    0.9200    0.9300    0.9400    0.9500
0.9600    0.9700    0.9800    0.9900    1.0000    1.0100    1.0200    1.0300
1.0400    1.0500    1.0600    1.0700    1.0800    1.0900    1.1000    1.1100
1.1200    1.1300    1.1400    1.1500    1.1600    1.1700    1.1800    1.1900
1.2000    1.2100    1.2200    1.2300    1.2400    1.2500    1.2600    1.2700
1.2800    1.2900    1.3000    1.3100    1.3200    1.3300    1.3400    1.3500
1.3600    1.3700    1.3800    1.3900    1.4000    1.4100    1.4200    1.4300
1.4400    1.4500    1.4600    1.4700    1.4800    1.4900    1.5000    1.5100
1.5200    1.5300    1.5400    1.5500    1.5600    1.5700    1.5800    1.5900
1.6000    1.6100    1.6200    1.6300    1.6400    1.6500    1.6600    1.6700
1.6800    1.6900    1.7000    1.7100    1.7200    1.7300    1.7400    1.7500
1.7600    1.7700    1.7800    1.7900    1.8000    1.8100    1.8200    1.8300
1.8400    1.8500    1.8600    1.8700    1.8800    1.8900    1.9000    1.9100
1.9200    1.9300    1.9400    1.9500    1.9600    1.9700    1.9800    1.9900
2.0000    2.0100    2.0200    2.0300    2.0400    2.0500    2.0600    2.0700
2.0800    2.0900    2.1000    2.1100    2.1200    2.1300    2.1400    2.1500
2.1600    2.1700    2.1800    2.1900    2.2000    2.2100    2.2200    2.2300
2.2400    2.2500    2.2600    2.2700    2.2800    2.2900    2.3000    2.3100
2.3200    2.3300    2.3400    2.3500    2.3600    2.3700    2.3800    2.3900
2.4000    2.4100    2.4200    2.4300    2.4400    2.4500    2.4600    2.4700
2.4800    2.4900    2.5000    2.5100    2.5200    2.5300    2.5400    2.5500
2.5600    2.5700    2.5800    2.5900    2.6000    2.6100    2.6200    2.6300
2.6400    2.6500    2.6600    2.6700    2.6800    2.6900    2.7000    2.7100
2.7200    2.7300    2.7400    2.7500    2.7600    2.7700    2.7800    2.7900
2.8000    2.8100    2.8200    2.8300    2.8400    2.8500    2.8600    2.8700
2.8800    2.8900    2.9000    2.9100    2.9200    2.9300    2.9400    2.9500
2.9600    2.9700    2.9800    2.9900    3.0000    3.0100    3.0200    3.0300
3.0400    3.0500    3.0600    3.0700    3.0800    3.0900    3.1000    3.1100
3.1200    3.1300    3.1400    3.1500    3.1600    3.1700    3.1800    3.1900
3.2000    3.2100    3.2200    3.2300    3.2400    3.2500    3.2600    3.2700
3.2800    3.2900    3.3000    3.3100    3.3200    3.3300    3.3400    3.3500
3.3600    3.3700    3.3800    3.3900    3.4000    3.4100    3.4200    3.4300
3.4400    3.4500    3.4600    3.4700    3.4800    3.4900    3.5000    3.5100
3.5200    3.5300    3.5400    3.5500    3.5600    3.5700    3.5800    3.5900
3.6000    3.6100    3.6200    3.6300    3.6400    3.6500    3.6600    3.6700
3.6800    3.6900    3.7000    3.7100    3.7200    3.7300    3.7400    3.7500
3.7600    3.7700    3.7800    3.7900    3.8000    3.8100    3.8200    3.8300
3.8400    3.8500    3.8600    3.8700    3.8800    3.8900    3.9000    3.9100
3.9200    3.9300    3.9400    3.9500    3.9600    3.9700    3.9800    3.9900
4.0000    4.0100    4.0200    4.0300    4.0400    4.0500    4.0600    4.0700
4.0800    4.0900    4.1000    4.1100    4.1200    4.1300    4.1400    4.1500
4.1600    4.1700    4.1800    4.1900    4.2000    4.2100    4.2200    4.2300
4.2400    4.2500    4.2600    4.2700    4.2800    4.2900    4.3000    4.3100
4.3200    4.3300    4.3400    4.3500    4.3600    4.3700    4.3800    4.3900
4.4000    4.4100    4.4200    4.4300    4.4400    4.4500    4.4600    4.4700
4.4800    4.4900    4.5000    4.5100    4.5200    4.5300    4.5400    4.5500
4.5600    4.5700    4.5800    4.5900    4.6000    4.6100    4.6200    4.6300
4.6400    4.6500    4.6600    4.6700    4.6800    4.6900    4.7000    4.7100
4.7200    4.7300    4.7400    4.7500    4.7600    4.7700    4.7800    4.7900
4.8000    4.8100    4.8200    4.8300    4.8400    4.8500    4.8600    4.8700
4.8800    4.8900    4.9000    4.9100    4.9200    4.9300    4.9400    4.9500
4.9600    4.9700    4.9800    4.9900    5.0000    5.0100    5.0200    5.0300
5.0400    5.0500    5.0600    5.0700    5.0800    5.0900    5.1000    5.1100
5.1200    5.1300    5.1400    5.1500    5.1600    5.1700    5.1800    5.1900
5.2000    5.2100    5.2200    5.2300    5.2400    5.2500    5.2600    5.2700
5.2800    5.2900    5.3000    5.3100    5.3200    5.3300    5.3400    5.3500
5.3600    5.3700    5.3800    5.3900    5.4000    5.4100    5.4200    5.4300
5.4400    5.4500    5.4600    5.4700    5.4800    5.4900    5.5000    5.5100
5.5200    5.5300    5.5400    5.5500    5.5600    5.5700    5.5800    5.5900
5.6000    5.6100    5.6200    5.6300    5.6400    5.6500    5.6600    5.6700
5.6800    5.6900    5.7000    5.7100    5.7200    5.7300    5.7400    5.7500
5.7600    5.7700    5.7800    5.7900    5.8000    5.8100    5.8200    5.8300
5.8400    5.8500    5.8600    5.8700    5.8800    5.8900    5.9000    5.9100
5.9200    5.9300    5.9400    5.9500    5.9600    5.9700    5.9800    5.9900
6.0000    6.0100    6.0200    6.0300    6.0400    6.0500    6.0600    6.0700
6.0800    6.0900    6.1000    6.1100    6.1200    6.1300    6.1400    6.1500
6.1600    6.1700    6.1800    6.1900    6.2000    6.2100    6.2200    6.2300
6.2400    6.2500    6.2600    6.2700    6.2800    6.2900    6.3000    6.3100
6.3200    6.3300    6.3400    6.3500    6.3600    6.3700    6.3800    6.3900
6.4000    6.4100    6.4200    6.4300    6.4400    6.4500    6.4600    6.4700
6.4800    6.4900    6.5000    6.5100    6.5200    6.5300    6.5400    6.5500
6.5600    6.5700    6.5800    6.5900    6.6000    6.6100    6.6200    6.6300
6.6400    6.6500    6.6600    6.6700    6.6800    6.6900    6.7000    6.7100
6.7200    6.7300    6.7400    6.7500    6.7600    6.7700    6.7800    6.7900
6.8000    6.8100    6.8200    6.8300    6.8400    6.8500    6.8600    6.8700
6.8800    6.8900    6.9000    6.9100    6.9200    6.9300    6.9400    6.9500
6.9600    6.9700    6.9800    6.9900    7.0000    7.0100    7.0200    7.0300
7.0400    7.0500    7.0600    7.0700    7.0800    7.0900    7.1000    7.1100
7.1200    7.1300    7.1400    7.1500    7.1600    7.1700    7.1800    7.1900
7.2000    7.2100    7.2200    7.2300    7.2400    7.2500    7.2600    7.2700
7.2800    7.2900    7.3000    7.3100    7.3200    7.3300    7.3400    7.3500
7.3600    7.3700    7.3800    7.3900    7.4000    7.4100    7.4200    7.4300
7.4400    7.4500    7.4600    7.4700    7.4800    7.4900    7.5000    7.5100
7.5200    7.5300    7.5400    7.5500    7.5600    7.5700    7.5800    7.5900
7.6000    7.6100    7.6200    7.6300    7.6400    7.6500    7.6600    7.6700
7.6800    7.6900    7.7000    7.7100    7.7200    7.7300    7.7400    7.7500
7.7600    7.7700    7.7800    7.7900    7.8000    7.8100    7.8200    7.8300
7.8400    7.8500    7.8600    7.8700    7.8800    7.8900    7.9000    7.9100
7.9200    7.9300    7.9400    7.9500    7.9600    7.9700    7.9800    7.9900
8.0000    8.0100    8.0200    8.0300    8.0400    8.0500    8.0600    8.0700
8.0800    8.0900    8.1000    8.1100    8.1200    8.1300    8.1400    8.1500
8.1600    8.1700    8.1800    8.1900    8.2000    8.2100    8.2200    8.2300
8.2400    8.2500    8.2600    8.2700    8.2800    8.2900    8.3000    8.3100
8.3200    8.3300    8.3400    8.3500    8.3600    8.3700    8.3800    8.3900
8.4000    8.4100    8.4200    8.4300    8.4400    8.4500    8.4600    8.4700
8.4800    8.4900    8.5000    8.5100    8.5200    8.5300    8.5400    8.5500
8.5600    8.5700    8.5800    8.5900    8.6000    8.6100    8.6200    8.6300
8.6400    8.6500    8.6600    8.6700    8.6800    8.6900    8.7000    8.7100
8.7200    8.7300    8.7400    8.7500    8.7600    8.7700    8.7800    8.7900
8.8000    8.8100    8.8200    8.8300    8.8400    8.8500    8.8600    8.8700
8.8800    8.8900    8.9000    8.9100    8.9200    8.9300    8.9400    8.9500
8.9600    8.9700    8.9800    8.9900    9.0000    9.0100    9.0200    9.0300
9.0400    9.0500    9.0600    9.0700    9.0800    9.0900    9.1000    9.1100
9.1200    9.1300    9.1400    9.1500    9.1600    9.1700    9.1800    9.1900
9.2000    9.2100    9.2200    9.2300    9.2400    9.2500
</PP_R>
<PP_RAB type="real"  size=" 926" columns="8">
0.0100    0.0100    0.0100    0.0100    0.0100    0.0100    0.0100    0.0100
0.0100    0.0100    0.0100    0.0100    0.0100    0.0100    0.0100    0.0100
0.0100    0.0100    0.0100    0.0100    0.0100    0.0100    0.0100    0.0100
0.0100    0.0100    0.0100    0.0100    0.0100    0.0100    0.0100    0.0100
0.0100    0.0100    0.0100    0.0100    0.0100    0.0100    0.0100    0.0100
0.0100    0.0100    0.0100    0.0100    0.0100    0.0100    0.0100    0.0100
0.0100    0.0100    0.0100    0.0100    0.0100    0.0100    0.0100    0.0100
0.0100    0.0100    0.0100    0.0100    0.0100    0.0100    0.0100    0.0100
0.0100    0.0100    0.0100    0.0100    0.0100    0.0100    0.0100    0.0100
0.0100    0.0100    0.0100    0.0100    0.0100    0.0100    0.0100    0.0100
0.0100    0.0100    0.0100    0.0100    0.0100    0.0100    0.0100    0.0100
0.0100    0.0100    0.0100    0.0100    0.0100    0.0100    0.0100    0.0100
0.0100    0.0100    0.0100    0.0100    0.0100    0.0100    0.0100    0.0100
0.0100    0.0100    0.0100    0.0100    0.0100    0.0100    0.0100    0.0100
0.0100    0.0100    0.0100    0.0100    0.0100    0.0100    0.0100    0.0100
0.0100    0.0100    0.0100    0.0100    0.0100    0.0100    0.0100    0.0100
0.0100    0.0100    0.0100    0.0100    0.0100    0.0100    0.0100    0.0100
0.0100    0.0100    0.0100    0.0100    0.0100    0.0100    0.0100    0.0100
0.0100    0.0100    0.0100    0.0100    0.0100    0.0100    0.0100    0.0100
0.0100    0.0100    0.0100    0.0100    0.0100    0.0100    0.0100    0.0100
0.0100    0.0100    0.0100    0.0100    0.0100    0.0100    0.0100    0.0100
0.0100    0.0100    0.0100    0.0100    0.0100    0.0100    0.0100    0.0100
0.0100    0.0100    0.0100    0.0100    0.0100    0.0100    0.0100    0.0100
0.0100    0.0100    0.0100    0.0100    0.0100    0.0100    0.0100    0.0100
0.0100    0.0100    0.0100    0.0100    0.0100    0.0100    0.0100    0.0100
0.0100    0.0100    0.0100    0.0100    0.0100    0.0100    0.0100    0.0100
0.0100    0.0100    0.0100    0.0100    0.0100    0.0100    0.0100    0.0100
0.0100    0.0100    0.0100    0.0100    0.0100    0.0100    0.0100    0.0100
0.0100    0.0100    0.0100    0.0100    0.0100    0.0100    0.0100    0.0100
0.0100    0.0100    0.0100    0.0100    0.0100    0.0100    0.0100    0.0100
0.0100    0.0100    0.0100    0.0100    0.0100    0.0100    0.0100    0.0100
0.0100    0.0100    0.0100    0.0100    0.0100    0.0100    0.0100    0.0100
0.0100    0.0100    0.0100    0.0100    0.0100    0.0100    0.0100    0.0100
0.0100    0.0100    0.0100    0.0100    0.0100    0.0100    0.0100    0.0100
0.0100    0.0100    0.0100    0.0100    0.0100    0.0100    0.0100    0.0100
0.0100    0.0100    0.0100    0.0100    0.0100    0.0100    0.0100    0.0100
0.0100    0.0100    0.0100    0.0100    0.0100    0.0100    0.0100    0.0100
0.0100    0.0100    0.0100    0.0100    0.0100    0.0100    0.0100    0.0100
0.0100    0.0100    0.0100    0.0100    0.0100    0.0100    0.0100    0.0100
0.0100    0.0100    0.0100    0.0100    0.0100    0.0100    0.0100    0.0100
0.0100    0.0100    0.0100    0.0100    0.0100    0.0100    0.0100    0.0100
0.0100    0.0100    0.0100    0.0100    0.0100    0.0100    0.0100    0.0100
0.0100    0.0100    0.0100    0.0100    0.0100    0.0100    0.0100    0.0100
0.0100    0.0100    0.0100    0.0100    0.0100    0.0100    0.0100    0.0100
0.0100    0.0100    0.0100    0.0100    0.0100    0.0100    0.0100    0.0100
0.0100    0.0100    0.0100    0.0100    0.0100    0.0100    0.0100    0.0100
0.0100    0.0100    0.0100    0.0100    0.0100    0.0100    0.0100    0.0100
0.0100    0.0100    0.0100    0.0100    0.0100    0.0100    0.0100    0.0100
0.0100    0.0100    0.0100    0.0100    0.0100    0.0100    0.0100    0.0100
0.0100    0.0100    0.0100    0.0100    0.0100    0.0100    0.0100    0.0100
0.0100    0.0100    0.0100    0.0100    0.0100    0.0100    0.0100    0.0100
0.0100    0.0100    0.0100    0.0100    0.0100    0.0100    0.0100    0.0100
0.0100    0.0100    0.0100    0.0100    0.0100    0.0100    0.0100    0.0100
0.0100    0.0100    0.0100    0.0100    0.0100    0.0100    0.0100    0.0100
0.0100    0.0100    0.0100    0.0100    0.0100    0.0100    0.0100    0.0100
0.0100    0.0100    0.0100    0.0100    0.0100    0.0100    0.0100    0.0100
0.0100    0.0100    0.0100    0.0100    0.0100    0.0100    0.0100    0.0100
0.0100    0.0100    0.0100    0.0100    0.0100    0.0100    0.0100    0.0100
0.0100    0.0100    0.0100    0.0100    0.0100    0.0100    0.0100    0.0100
0.0100    0.0100    0.0100    0.0100    0.0100    0.0100    0.0100    0.0100
0.0100    0.0100    0.0100    0.0100    0.0100    0.0100    0.0100    0.0100
0.0100    0.0100    0.0100    0.0100    0.0100    0.0100    0.0100    0.0100
0.0100    0.0100    0.0100    0.0100    0.0100    0.0100    0.0100    0.0100
0.0100    0.0100    0.0100    0.0100    0.0100    0.0100    0.0100    0.0100
0.0100    0.0100    0.0100    0.0100    0.0100    0.0100    0.0100    0.0100
0.0100    0.0100    0.0100    0.0100    0.0100    0.0100    0.0100    0.0100
0.0100    0.0100    0.0100    0.0100    0.0100    0.0100    0.0100    0.0100
0.0100    0.0100    0.0100    0.0100    0.0100    0.0100    0.0100    0.0100
0.0100    0.0100    0.0100    0.0100    0.0100    0.0100    0.0100    0.0100
0.0100    0.0100    0.0100    0.0100    0.0100    0.0100    0.0100    0.0100
0.0100    0.0100    0.0100    0.0100    0.0100    0.0100    0.0100    0.0100
0.0100    0.0100    0.0100    0.0100    0.0100    0.0100    0.0100    0.0100
0.0100    0.0100    0.0100    0.0100    0.0100    0.0100    0.0100    0.0100
0.0100    0.0100    0.0100    0.0100    0.0100    0.0100    0.0100    0.0100
0.0100    0.0100    0.0100    0.0100    0.0100    0.0100    0.0100    0.0100
0.0100    0.0100    0.0100    0.0100    0.0100    0.0100    0.0100    0.0100
0.0100    0.0100    0.0100    0.0100    0.0100    0.0100    0.0100    0.0100
0.0100    0.0100    0.0100    0.0100    0.0100    0.0100    0.0100    0.0100
0.0100    0.0100    0.0100    0.0100    0.0100    0.0100    0.0100    0.0100
0.0100    0.0100    0.0100    0.0100    0.0100    0.0100    0.0100    0.0100
0.0100    0.0100    0.0100    0.0100    0.0100    0.0100    0.0100    0.0100
0.0100    0.0100    0.0100    0.0100    0.0100    0.0100    0.0100    0.0100
0.0100    0.0100    0.0100    0.0100    0.0100    0.0100    0.0100    0.0100
0.0100    0.0100    0.0100    0.0100    0.0100    0.0100    0.0100    0.0100
0.0100    0.0100    0.0100    0.0100    0.0100    0.0100    0.0100    0.0100
0.0100    0.0100    0.0100    0.0100    0.0100    0.0100    0.0100    0.0100
0.0100    0.0100    0.0100    0.0100    0.0100    0.0100    0.0100    0.0100
0.0100    0.0100    0.0100    0.0100    0.0100    0.0100    0.0100    0.0100
0.0100    0.0100    0.0100    0.0100    0.0100    0.0100    0.0100    0.0100
0.0100    0.0100    0.0100    0.0100    0.0100    0.0100    0.0100    0.0100
0.0100    0.0100    0.0100    0.0100    0.0100    0.0100    0.0100    0.0100
0.0100    0.0100    0.0100    0.0100    0.0100    0.0100    0.0100    0.0100
0.0100    0.0100    0.0100    0.0100    0.0100    0.0100    0.0100    0.0100
0.0100    0.0100    0.0100    0.0100    0.0100    0.0100    0.0100    0.0100
0.0100    0.0100    0.0100    0.0100    0.0100    0.0100    0.0100    0.0100
0.0100    0.0100    0.0100    0.0100    0.0100    0.0100    0.0100    0.0100
0.0100    0.0100    0.0100    0.0100    0.0100    0.0100    0.0100    0.0100
0.0100    0.0100    0.0100    0.0100    0.0100    0.0100    0.0100    0.0100
0.0100    0.0100    0.0100    0.0100    0.0100    0.0100    0.0100    0.0100
0.0100    0.0100    0.0100    0.0100    0.0100    0.0100    0.0100    0.0100
0.0100    0.0100    0.0100    0.0100    0.0100    0.0100    0.0100    0.0100
0.0100    0.0100    0.0100    0.0100    0.0100    0.0100    0.0100    0.0100
0.0100    0.0100    0.0100    0.0100    0.0100    0.0100    0.0100    0.0100
0.0100    0.0100    0.0100    0.0100    0.0100    0.0100    0.0100    0.0100
0.0100    0.0100    0.0100    0.0100    0.0100    0.0100    0.0100    0.0100
0.0100    0.0100    0.0100    0.0100    0.0100    0.0100    0.0100    0.0100
0.0100    0.0100    0.0100    0.0100    0.0100    0.0100    0.0100    0.0100
0.0100    0.0100    0.0100    0.0100    0.0100    0.0100    0.0100    0.0100
0.0100    0.0100    0.0100    0.0100    0.0100    0.0100    0.0100    0.0100
0.0100    0.0100    0.0100    0.0100    0.0100    0.0100    0.0100    0.0100
0.0100    0.0100    0.0100    0.0100    0.0100    0.0100    0.0100    0.0100
0.0100    0.0100    0.0100    0.0100    0.0100    0.0100    0.0100    0.0100
0.0100    0.0100    0.0100    0.0100    0.0100    0.0100    0.0100    0.0100
0.0100    0.0100    0.0100    0.0100    0.0100    0.0100    0.0100    0.0100
0.0100    0.0100    0.0100    0.0100    0.0100    0.0100    0.0100    0.0100
0.0100    0.0100    0.0100    0.0100    0.0100    0.0100
</PP_RAB>
</PP_MESH>
<PP_LOCAL type="real"  size=" 926" columns="4">
-2.1437020839E+01   -2.1436449750E+01   -2.1434736349E+01   -2.1431880256E+01
-2.1427880832E+01   -2.1422737186E+01   -2.1416448169E+01   -2.1409012379E+01
-2.1400428158E+01   -2.1390693593E+01   -2.1379806517E+01   -2.1367764508E+01
-2.1354564889E+01   -2.1340204732E+01   -2.1324680855E+01   -2.1307989827E+01
-2.1290127965E+01   -2.1271091341E+01   -2.1250875783E+01   -2.1229476875E+01
-2.1206889967E+01   -2.1183110173E+01   -2.1158132380E+01   -2.1131951253E+01
-2.1104561242E+01   -2.1075956590E+01   -2.1046131340E+01   -2.1015079351E+01
-2.0982794300E+01   -2.0949269703E+01   -2.0914498925E+01   -2.0878475194E+01
-2.0841191623E+01   -2.0802641221E+01   -2.0762816920E+01   -2.0721711594E+01
-2.0679318082E+01   -2.0635629215E+01   -2.0590637843E+01   -2.0544336864E+01
-2.0496719258E+01   -2.0447778120E+01   -2.0397506694E+01   -2.0345898414E+01
-2.0292946947E+01   -2.0238646231E+01   -2.0182990523E+01   -2.0125974451E+01
-2.0067593058E+01   -2.0007841860E+01   -1.9946716896E+01   -1.9884214792E+01
-1.9820332816E+01   -1.9755068938E+01   -1.9688421898E+01   -1.9620391268E+01
-1.9550977516E+01   -1.9480182076E+01   -1.9408007414E+01   -1.9334457095E+01
-1.9259535853E+01   -1.9183249652E+01   -1.9105605755E+01   -1.9026612787E+01
-1.8946280793E+01   -1.8864621296E+01   -1.8781647352E+01   -1.8697373594E+01
-1.8611816278E+01   -1.8524993320E+01   -1.8436924326E+01   -1.8347630612E+01
-1.8257135225E+01   -1.8165462943E+01   -1.8072640279E+01   -1.7978695466E+01
-1.7883658441E+01   -1.7787560812E+01   -1.7690435823E+01   -1.7592318303E+01
-1.7493244614E+01   -1.7393252587E+01   -1.7292381446E+01   -1.7190671733E+01
-1.7088165221E+01   -1.6984904824E+01   -1.6880934499E+01   -1.6776299150E+01
-1.6671044522E+01   -1.6565217097E+01   -1.6458863988E+01   -1.6352032832E+01
-1.6244771683E+01   -1.6137128908E+01   -1.6029153081E+01   -1.5920892883E+01
-1.5812397003E+01   -1.5703714041E+01   -1.5594892418E+01   -1.5485980288E+01
-1.5377025454E+01   -1.5268075286E+01   -1.5159176651E+01   -1.5050375836E+01
-1.4941718486E+01   -1.4833249541E+01   -1.4725013177E+01   -1.4617052751E+01
-1.4509410754E+01   -1.4402128763E+01   -1.4295247395E+01   -1.4188806272E+01
-1.4082843983E+01   -1.3977398046E+01   -1.3872504881E+01   -1.3768199781E+01
-1.3664516881E+01   -1.3561489138E+01   -1.3459148304E+01   -1.3357524907E+01
-1.3256648227E+01   -1.3156546284E+01   -1.3057245813E+01   -1.2958772250E+01
-1.2861149717E+01   -1.2764401006E+01   -1.2668547563E+01   -1.2573609475E+01
-1.2479605457E+01   -1.2386552836E+01   -1.2294467540E+01   -1.2203364084E+01
-1.2113255559E+01   -1.2024153614E+01   -1.1936068451E+01   -1.1849008803E+01
-1.1762981931E+01   -1.1677993600E+01   -1.1594048073E+01   -1.1511148097E+01
-1.1429294885E+01   -1.1348488105E+01   -1.1268725862E+01   -1.1190004688E+01
-1.1112319522E+01   -1.1035663695E+01   -1.0960028913E+01   -1.0885405246E+01
-1.0811781088E+01   -1.0739143201E+01   -1.0667476654E+01   -1.0596764571E+01
-1.0526988841E+01   -1.0458130815E+01   -1.0390172017E+01   -1.0323094704E+01
-1.0256881610E+01   -1.0191515905E+01   -1.0126981238E+01   -1.0063261684E+01
-1.0000341714E+01   -9.9382061785E+00   -9.8768403004E+00   -9.8162296659E+00
-9.7563602266E+00   -9.6972182853E+00   -9.6387904812E+00   -9.5810637842E+00
-9.5240254870E+00   -9.4676631954E+00   -9.4119648198E+00   -9.3569185668E+00
-9.3025129307E+00   -9.2487366852E+00   -9.1955788755E+00   -9.1430288101E+00
-9.0910760530E+00   -9.0397104160E+00   -8.9889219512E+00   -8.9387009436E+00
-8.8890379042E+00   -8.8399235624E+00   -8.7913488598E+00   -8.7433049432E+00
-8.6957831585E+00   -8.6487750443E+00   -8.6022723257E+00   -8.5562669089E+00
-8.5107508754E+00   -8.4657164766E+00   -8.4211561289E+00   -8.3770624081E+00
-8.3334280453E+00   -8.2902459222E+00   -8.2475090664E+00   -8.2052106474E+00
-8.1633439729E+00   -8.1219024845E+00   -8.0808797545E+00   -8.0402694821E+00
-8.0000654903E+00   -7.9602617225E+00   -7.9208522398E+00   -7.8818312179E+00
-7.8431929444E+00   -7.8049318161E+00   -7.7670423366E+00   -7.7295191136E+00
-7.6923568570E+00   -7.6555503763E+00   -7.6190945784E+00   -7.5829844659E+00
-7.5472151346E+00   -7.5117817717E+00   -7.4766796542E+00   -7.4419041465E+00
-7.4074506989E+00   -7.3733148458E+00   -7.3394922038E+00   -7.3059784701E+00
-7.2727694209E+00   -7.2398609096E+00   -7.2072488652E+00   -7.1749292907E+00
-7.1428982616E+00   -7.1111519241E+00   -7.0796864941E+00   -7.0484982548E+00
-7.0175835561E+00   -6.9869388126E+00   -6.9565605024E+00   -6.9264451655E+00
-6.8965894025E+00   -6.8669898732E+00   -6.8376432951E+00   -6.8085464425E+00
-6.7796961447E+00   -6.7510892850E+00   -6.7227227996E+00   -6.6945936761E+00
-6.6666989524E+00   -6.6390357157E+00   -6.6116011012E+00   -6.5843922913E+00
-6.5574065142E+00   -6.5306410432E+00   -6.5040931956E+00   -6.4777603316E+00
-6.4516398537E+00   -6.4257292056E+00   -6.4000258714E+00   -6.3745273749E+00
-6.3492312786E+00   -6.3241351829E+00   -6.2992367258E+00   -6.2745335816E+00
-6.2500234607E+00   -6.2257041086E+00   -6.2015733054E+00   -6.1776288653E+00
-6.1538686355E+00   -6.1302904963E+00   -6.1068923601E+00   -6.0836721709E+00
-6.0606279037E+00   -6.0377575640E+00   -6.0150591876E+00   -5.9925308395E+00
-5.9701706137E+00   -5.9479766329E+00   -5.9259470477E+00   -5.9040800359E+00
-5.8823738028E+00   -5.8608265801E+00   -5.8394366257E+00   -5.8182022234E+00
-5.7971216804E+00   -5.7761933296E+00   -5.7554155274E+00   -5.7347866580E+00
-5.7143051297E+00   -5.6939693740E+00   -5.6737778434E+00   -5.6537290101E+00
-5.6338213679E+00   -5.6140534309E+00   -5.5944237339E+00   -5.5749308316E+00
-5.5555732986E+00   -5.5363497294E+00   -5.5172587384E+00   -5.4982989588E+00
-5.4794690426E+00   -5.4607676601E+00   -5.4421934995E+00   -5.4237452672E+00
-5.4054216867E+00   -5.3872214990E+00   -5.3691434617E+00   -5.3511863493E+00
-5.3333489526E+00   -5.3156300782E+00   -5.2980285488E+00   -5.2805432025E+00
-5.2631728927E+00   -5.2459164880E+00   -5.2287728716E+00   -5.2117409412E+00
-5.1948196091E+00   -5.1780078014E+00   -5.1613044582E+00   -5.1447085332E+00
-5.1282189934E+00   -5.1118348193E+00   -5.0955550040E+00   -5.0793785538E+00
-5.0633044872E+00   -5.0473318354E+00   -5.0314596415E+00   -5.0156869607E+00
-5.0000128602E+00   -4.9844364186E+00   -4.9689567261E+00   -4.9535728839E+00
-4.9382840046E+00   -4.9230892117E+00   -4.9079876391E+00   -4.8929784318E+00
-4.8780607449E+00   -4.8632337438E+00   -4.8484966041E+00   -4.8338485114E+00
-4.8192886609E+00   -4.8048162578E+00   -4.7904305164E+00   -4.7761306608E+00
-4.7619159241E+00   -4.7477855486E+00   -4.7337387854E+00   -4.7197748947E+00
-4.7058931451E+00   -4.6920928141E+00   -4.6783731873E+00   -4.6647335590E+00
-4.6511732315E+00   -4.6376915152E+00   -4.6242877284E+00   -4.6109611975E+00
-4.5977112563E+00   -4.5845372467E+00   -4.5714385176E+00   -4.5584144256E+00
-4.5454643347E+00   -4.5325876160E+00   -4.5197836475E+00   -4.5070518146E+00
-4.4943915093E+00   -4.4818021305E+00   -4.4692830839E+00   -4.4568337818E+00
-4.4444536429E+00   -4.4321420925E+00   -4.4198985621E+00   -4.4077224896E+00
-4.3956133190E+00   -4.3835705004E+00   -4.3715934900E+00   -4.3596817498E+00
-4.3478347476E+00   -4.3360519573E+00   -4.3243328580E+00   -4.3126769349E+00
-4.3010836784E+00   -4.2895525844E+00   -4.2780831544E+00   -4.2666748951E+00
-4.2553273183E+00   -4.2440399411E+00   -4.2328122859E+00   -4.2216438798E+00
-4.2105342551E+00   -4.1994829489E+00   -4.1884895033E+00   -4.1775534650E+00
-4.1666743855E+00   -4.1558518210E+00   -4.1450853322E+00   -4.1343744845E+00
-4.1237188476E+00   -4.1131179957E+00   -4.1025715074E+00   -4.0920789656E+00
-4.0816399574E+00   -4.0712540742E+00   -4.0609209115E+00   -4.0506400688E+00
-4.0404111498E+00   -4.0302337621E+00   -4.0201075172E+00   -4.0100320307E+00
-4.0000069219E+00   -3.9900318138E+00   -3.9801063333E+00   -3.9702301110E+00
-3.9604027811E+00   -3.9506239814E+00   -3.9408933534E+00   -3.9312105418E+00
-3.9215751953E+00   -3.9119869655E+00   -3.9024455078E+00   -3.8929504807E+00
-3.8835015461E+00   -3.8740983693E+00   -3.8647406186E+00   -3.8554279657E+00
-3.8461600853E+00   -3.8369366553E+00   -3.8277573568E+00   -3.8186218736E+00
-3.8095298930E+00   -3.8004811048E+00   -3.7914752020E+00   -3.7825118804E+00
-3.7735908388E+00   -3.7647117788E+00   -3.7558744046E+00   -3.7470784233E+00
-3.7383235450E+00   -3.7296094821E+00   -3.7209359498E+00   -3.7123026661E+00
-3.7037093514E+00   -3.6951557288E+00   -3.6866415239E+00   -3.6781664650E+00
-3.6697302826E+00   -3.6613327098E+00   -3.6529734822E+00   -3.6446523378E+00
-3.6363690169E+00   -3.6281232622E+00   -3.6199148188E+00   -3.6117434338E+00
-3.6036088570E+00   -3.5955108402E+00   -3.5874491375E+00   -3.5794235052E+00
-3.5714337016E+00   -3.5634794875E+00   -3.5555606256E+00   -3.5476768807E+00
-3.5398280197E+00   -3.5320138116E+00   -3.5242340274E+00   -3.5164884401E+00
-3.5087768249E+00   -3.5010989585E+00   -3.4934546201E+00   -3.4858435904E+00
-3.4782656523E+00   -3.4707205903E+00   -3.4632081910E+00   -3.4557282427E+00
-3.4482805357E+00   -3.4408648620E+00   -3.4334810152E+00   -3.4261287910E+00
-3.4188079866E+00   -3.4115184011E+00   -3.4042598351E+00   -3.3970320912E+00
-3.3898349734E+00   -3.3826682875E+00   -3.3755318408E+00   -3.3684254424E+00
-3.3613489028E+00   -3.3543020344E+00   -3.3472846508E+00   -3.3402965674E+00
-3.3333376012E+00   -3.3264075704E+00   -3.3195062949E+00   -3.3126335963E+00
-3.3057892973E+00   -3.2989732223E+00   -3.2921851970E+00   -3.2854250487E+00
-3.2786926060E+00   -3.2719876989E+00   -3.2653101588E+00   -3.2586598185E+00
-3.2520365122E+00   -3.2454400754E+00   -3.2388703448E+00   -3.2323271587E+00
-3.2258103564E+00   -3.2193197787E+00   -3.2128552677E+00   -3.2064166666E+00
-3.2000038199E+00   -3.1936165735E+00   -3.1872547743E+00   -3.1809182706E+00
-3.1746069119E+00   -3.1683205486E+00   -3.1620590327E+00   -3.1558222171E+00