<UPF version="2.0.1">
<PP_INFO>

This pseudopotential file has been produced using the code
ONCVPSP  (Optimized Norm-Conservinng Vanderbilt PSeudopotential)
scalar-relativistic version 3.2.3 08/16/2016 by D. R. Hamann
The code is available through a link at URL www.mat-simresearch.com.
Documentation with the package provides a full discription of the
input data below.


While it is not required under the terms of the GNU GPL, it is
suggested that you cite D. R. Hamann, Phys. Rev. B 88, 085117 (2013)
in any publication using these pseudopotentials.

<PP_INPUTFILE>
# ATOM AND REFERENCE CONFIGURATION
# atsym  z   nc   nv     iexc    psfile
He  2.00    0    1   -1012      upf
#
#   n    l    f        energy (Ha)
1    0    2.00
#
# PSEUDOPOTENTIAL AND OPTIMIZATION
# lmax
1
#
#   l,   rc,      ep,       ncon, nbas, qcut
0   1.25000  -0.57027    4    8   9.40000
1   1.13000   0.05000    4    7   9.40000
#
# LOCAL POTENTIAL
# lloc, lpopt,  rc(5),   dvloc0
4    5   1.00000      0.00000
#
# VANDERBILT-KLEINMAN-BYLANDER PROJECTORs
# l, nproj, debl
0    2   1.00000
1    1   1.00000
#
# MODEL CORE CHARGE
# icmod, fcfact, rcfact
0   0.00000   0.00000
#
# LOG DERIVATIVE ANALYSIS
# epsh1, epsh2, depsh
-12.00   12.00    0.02
#
# OUTPUT GRID
# rlmax, drl
6.00    0.01
#
# TEST CONFIGURATIONS
# ncnf
0
# nvcnf
#   n    l    f
</PP_INPUTFILE>
</PP_INFO>
<!--                               -->
<!-- END OF HUMAN READABLE SECTION -->
<!--                               -->
<PP_HEADER
generated="Generated using ONCVPSP code by D. R. Hamann"
author="anonymous"
date="170124"
comment=""
element="He"
pseudo_type="NC"
relativistic="scalar"
is_ultrasoft="F"
is_paw="F"
is_coulomb="F"
has_so="F"
has_wfc="F"
has_gipaw="F"
core_correction="F"
functional="SLA  PW   NOGX NOGC"
z_valence="    2.00"
total_psenergy="  -5.60895730622E+00"
rho_cutoff="   7.31000000000E+00"
l_max="1"
l_local="-1"
mesh_size="   732"
number_of_wfc="1"
number_of_proj="3"/>
<PP_MESH>
<PP_R type="real"  size=" 732" columns="8">
0.0000    0.0100    0.0200    0.0300    0.0400    0.0500    0.0600    0.0700
0.0800    0.0900    0.1000    0.1100    0.1200    0.1300    0.1400    0.1500
0.1600    0.1700    0.1800    0.1900    0.2000    0.2100    0.2200    0.2300
0.2400    0.2500    0.2600    0.2700    0.2800    0.2900    0.3000    0.3100
0.3200    0.3300    0.3400    0.3500    0.3600    0.3700    0.3800    0.3900
0.4000    0.4100    0.4200    0.4300    0.4400    0.4500    0.4600    0.4700
0.4800    0.4900    0.5000    0.5100    0.5200    0.5300    0.5400    0.5500
0.5600    0.5700    0.5800    0.5900    0.6000    0.6100    0.6200    0.6300
0.6400    0.6500    0.6600    0.6700    0.6800    0.6900    0.7000    0.7100
0.7200    0.7300    0.7400    0.7500    0.7600    0.7700    0.7800    0.7900
0.8000    0.8100    0.8200    0.8300    0.8400    0.8500    0.8600    0.8700
0.8800    0.8900    0.9000    0.9100    0.9200    0.9300    0.9400    0.9500
0.9600    0.9700    0.9800    0.9900    1.0000    1.0100    1.0200    1.0300
1.0400    1.0500    1.0600    1.0700    1.0800    1.0900    1.1000    1.1100
1.1200    1.1300    1.1400    1.1500    1.1600    1.1700    1.1800    1.1900
1.2000    1.2100    1.2200    1.2300    1.2400    1.2500    1.2600    1.2700
1.2800    1.2900    1.3000    1.3100    1.3200    1.3300    1.3400    1.3500
1.3600    1.3700    1.3800    1.3900    1.4000    1.4100    1.4200    1.4300
1.4400    1.4500    1.4600    1.4700    1.4800    1.4900    1.5000    1.5100
1.5200    1.5300    1.5400    1.5500    1.5600    1.5700    1.5800    1.5900
1.6000    1.6100    1.6200    1.6300    1.6400    1.6500    1.6600    1.6700
1.6800    1.6900    1.7000    1.7100    1.7200    1.7300    1.7400    1.7500
1.7600    1.7700    1.7800    1.7900    1.8000    1.8100    1.8200    1.8300
1.8400    1.8500    1.8600    1.8700    1.8800    1.8900    1.9000    1.9100
1.9200    1.9300    1.9400    1.9500    1.9600    1.9700    1.9800    1.9900
2.0000    2.0100    2.0200    2.0300    2.0400    2.0500    2.0600    2.0700
2.0800    2.0900    2.1000    2.1100    2.1200    2.1300    2.1400    2.1500
2.1600    2.1700    2.1800    2.1900    2.2000    2.2100    2.2200    2.2300
2.2400    2.2500    2.2600    2.2700    2.2800    2.2900    2.3000    2.3100
2.3200    2.3300    2.3400    2.3500    2.3600    2.3700    2.3800    2.3900
2.4000    2.4100    2.4200    2.4300    2.4400    2.4500    2.4600    2.4700
2.4800    2.4900    2.5000    2.5100    2.5200    2.5300    2.5400    2.5500
2.5600    2.5700    2.5800    2.5900    2.6000    2.6100    2.6200    2.6300
2.6400    2.6500    2.6600    2.6700    2.6800    2.6900    2.7000    2.7100
2.7200    2.7300    2.7400    2.7500    2.7600    2.7700    2.7800    2.7900
2.8000    2.8100    2.8200    2.8300    2.8400    2.8500    2.8600    2.8700
2.8800    2.8900    2.9000    2.9100    2.9200    2.9300    2.9400    2.9500
2.9600    2.9700    2.9800    2.9900    3.0000    3.0100    3.0200    3.0300
3.0400    3.0500    3.0600    3.0700    3.0800    3.0900    3.1000    3.1100
3.1200    3.1300    3.1400    3.1500    3.1600    3.1700    3.1800    3.1900
3.2000    3.2100    3.2200    3.2300    3.2400    3.2500    3.2600    3.2700
3.2800    3.2900    3.3000    3.3100    3.3200    3.3300    3.3400    3.3500
3.3600    3.3700    3.3800    3.3900    3.4000    3.4100    3.4200    3.4300
3.4400    3.4500    3.4600    3.4700    3.4800    3.4900    3.5000    3.5100
3.5200    3.5300    3.5400    3.5500    3.5600    3.5700    3.5800    3.5900
3.6000    3.6100    3.6200    3.6300    3.6400    3.6500    3.6600    3.6700
3.6800    3.6900    3.7000    3.7100    3.7200    3.7300    3.7400    3.7500
3.7600    3.7700    3.7800    3.7900    3.8000    3.8100    3.8200    3.8300
3.8400    3.8500    3.8600    3.8700    3.8800    3.8900    3.9000    3.9100
3.9200    3.9300    3.9400    3.9500    3.9600    3.9700    3.9800    3.9900
4.0000    4.0100    4.0200    4.0300    4.0400    4.0500    4.0600    4.0700
4.0800    4.0900    4.1000    4.1100    4.1200    4.1300    4.1400    4.1500
4.1600    4.1700    4.1800    4.1900    4.2000    4.2100    4.2200    4.2300
4.2400    4.2500    4.2600    4.2700    4.2800    4.2900    4.3000    4.3100
4.3200    4.3300    4.3400    4.3500    4.3600    4.3700    4.3800    4.3900
4.4000    4.4100    4.4200    4.4300    4.4400    4.4500    4.4600    4.4700
4.4800    4.4900    4.5000    4.5100    4.5200    4.5300    4.5400    4.5500
4.5600    4.5700    4.5800    4.5900    4.6000    4.6100    4.6200    4.6300
4.6400    4.6500    4.6600    4.6700    4.6800    4.6900    4.7000    4.7100
4.7200    4.7300    4.7400    4.7500    4.7600    4.7700    4.7800    4.7900
4.8000    4.8100    4.8200    4.8300    4.8400    4.8500    4.8600    4.8700
4.8800    4.8900    4.9000    4.9100    4.9200    4.9300    4.9400    4.9500
4.9600    4.9700    4.9800    4.9900    5.0000    5.0100    5.0200    5.0300
5.0400    5.0500    5.0600    5.0700    5.0800    5.0900    5.1000    5.1100
5.1200    5.1300    5.1400    5.1500    5.1600    5.1700    5.1800    5.1900
5.2000    5.2100    5.2200    5.2300    5.2400    5.2500    5.2600    5.2700
5.2800    5.2900    5.3000    5.3100    5.3200    5.3300    5.3400    5.3500
5.3600    5.3700    5.3800    5.3900    5.4000    5.4100    5.4200    5.4300
5.4400    5.4500    5.4600    5.4700    5.4800    5.4900    5.5000    5.5100
5.5200    5.5300    5.5400    5.5500    5.5600    5.5700    5.5800    5.5900
5.6000    5.6100    5.6200    5.6300    5.6400    5.6500    5.6600    5.6700
5.6800    5.6900    5.7000    5.7100    5.7200    5.7300    5.7400    5.7500
5.7600    5.7700    5.7800    5.7900    5.8000    5.8100    5.8200    5.8300
5.8400    5.8500    5.8600    5.8700    5.8800    5.8900    5.9000    5.9100
5.9200    5.9300    5.9400    5.9500    5.9600    5.9700    5.9800    5.9900
6.0000    6.0100    6.0200    6.0300    6.0400    6.0500    6.0600    6.0700
6.0800    6.0900    6.1000    6.1100    6.1200    6.1300    6.1400    6.1500
6.1600    6.1700    6.1800    6.1900    6.2000    6.2100    6.2200    6.2300
6.2400    6.2500    6.2600    6.2700    6.2800    6.2900    6.3000    6.3100
6.3200    6.3300    6.3400    6.3500    6.3600    6.3700    6.3800    6.3900
6.4000    6.4100    6.4200    6.4300    6.4400    6.4500    6.4600    6.4700
6.4800    6.4900    6.5000    6.5100    6.5200    6.5300    6.5400    6.5500
6.5600    6.5700    6.5800    6.5900    6.6000    6.6100    6.6200    6.6300
6.6400    6.6500    6.6600    6.6700    6.6800    6.6900    6.7000    6.7100
6.7200    6.7300    6.7400    6.7500    6.7600    6.7700    6.7800    6.7900
6.8000    6.8100    6.8200    6.8300    6.8400    6.8500    6.8600    6.8700
6.8800    6.8900    6.9000    6.9100    6.9200    6.9300    6.9400    6.9500
6.9600    6.9700    6.9800    6.9900    7.0000    7.0100    7.0200    7.0300
7.0400    7.0500    7.0600    7.0700    7.0800    7.0900    7.1000    7.1100
7.1200    7.1300    7.1400    7.1500    7.1600    7.1700    7.1800    7.1900
7.2000    7.2100    7.2200    7.2300    7.2400    7.2500    7.2600    7.2700
7.2800    7.2900    7.3000    7.3100
</PP_R>
<PP_RAB type="real"  size=" 732" columns="8">
0.0100    0.0100    0.0100    0.0100    0.0100    0.0100    0.0100    0.0100
0.0100    0.0100    0.0100    0.0100    0.0100    0.0100    0.0100    0.0100
0.0100    0.0100    0.0100    0.0100    0.0100    0.0100    0.0100    0.0100
0.0100    0.0100    0.0100    0.0100    0.0100    0.0100    0.0100    0.0100
0.0100    0.0100    0.0100    0.0100    0.0100    0.0100    0.0100    0.0100
0.0100    0.0100    0.0100    0.0100    0.0100    0.0100    0.0100    0.0100
0.0100    0.0100    0.0100    0.0100    0.0100    0.0100    0.0100    0.0100
0.0100    0.0100    0.0100    0.0100    0.0100    0.0100    0.0100    0.0100
0.0100    0.0100    0.0100    0.0100    0.0100    0.0100    0.0100    0.0100
0.0100    0.0100    0.0100    0.0100    0.0100    0.0100    0.0100    0.0100
0.0100    0.0100    0.0100    0.0100    0.0100    0.0100    0.0100    0.0100
0.0100    0.0100    0.0100    0.0100    0.0100    0.0100    0.0100    0.0100
0.0100    0.0100    0.0100    0.0100    0.0100    0.0100    0.0100    0.0100
0.0100    0.0100    0.0100    0.0100    0.0100    0.0100    0.0100    0.0100
0.0100    0.0100    0.0100    0.0100    0.0100    0.0100    0.0100    0.0100
0.0100    0.0100    0.0100    0.0100    0.0100    0.0100    0.0100    0.0100
0.0100    0.0100    0.0100    0.0100    0.0100    0.0100    0.0100    0.0100
0.0100    0.0100    0.0100    0.0100    0.0100    0.0100    0.0100    0.0100
0.0100    0.0100    0.0100    0.0100    0.0100    0.0100    0.0100    0.0100
0.0100    0.0100    0.0100    0.0100    0.0100    0.0100    0.0100    0.0100
0.0100    0.0100    0.0100    0.0100    0.0100    0.0100    0.0100    0.0100
0.0100    0.0100    0.0100    0.0100    0.0100    0.0100    0.0100    0.0100
0.0100    0.0100    0.0100    0.0100    0.0100    0.0100    0.0100    0.0100
0.0100    0.0100    0.0100    0.0100    0.0100    0.0100    0.0100    0.0100
0.0100    0.0100    0.0100    0.0100    0.0100    0.0100    0.0100    0.0100
0.0100    0.0100    0.0100    0.0100    0.0100    0.0100    0.0100    0.0100
0.0100    0.0100    0.0100    0.0100    0.0100    0.0100    0.0100    0.0100
0.0100    0.0100    0.0100    0.0100    0.0100    0.0100    0.0100    0.0100
0.0100    0.0100    0.0100    0.0100    0.0100    0.0100    0.0100    0.0100
0.0100    0.0100    0.0100    0.0100    0.0100    0.0100    0.0100    0.0100
0.0100    0.0100    0.0100    0.0100    0.0100    0.0100    0.0100    0.0100
0.0100    0.0100    0.0100    0.0100    0.0100    0.0100    0.0100    0.0100
0.0100    0.0100    0.0100    0.0100    0.0100    0.0100    0.0100    0.0100
0.0100    0.0100    0.0100    0.0100    0.0100    0.0100    0.0100    0.0100
0.0100    0.0100    0.0100    0.0100    0.0100    0.0100    0.0100    0.0100
0.0100    0.0100    0.0100    0.0100    0.0100    0.0100    0.0100    0.0100
0.0100    0.0100    0.0100    0.0100    0.0100    0.0100    0.0100    0.0100
0.0100    0.0100    0.0100    0.0100    0.0100    0.0100    0.0100    0.0100
0.0100    0.0100    0.0100    0.0100    0.0100    0.0100    0.0100    0.0100
0.0100    0.0100    0.0100    0.0100    0.0100    0.0100    0.0100    0.0100
0.0100    0.0100    0.0100    0.0100    0.0100    0.0100    0.0100    0.0100
0.0100    0.0100    0.0100    0.0100    0.0100    0.0100    0.0100    0.0100
0.0100    0.0100    0.0100    0.0100    0.0100    0.0100    0.0100    0.0100
0.0100    0.0100    0.0100    0.0100    0.0100    0.0100    0.0100    0.0100
0.0100    0.0100    0.0100    0.0100    0.0100    0.0100    0.0100    0.0100
0.0100    0.0100    0.0100    0.0100    0.0100    0.0100    0.0100    0.0100
0.0100    0.0100    0.0100    0.0100    0.0100    0.0100    0.0100    0.0100
0.0100    0.0100    0.0100    0.0100    0.0100    0.0100    0.0100    0.0100
0.0100    0.0100    0.0100    0.0100    0.0100    0.0100    0.0100    0.0100
0.0100    0.0100    0.0100    0.0100    0.0100    0.0100    0.0100    0.0100
0.0100    0.0100    0.0100    0.0100    0.0100    0.0100    0.0100    0.0100
0.0100    0.0100    0.0100    0.0100    0.0100    0.0100    0.0100    0.0100
0.0100    0.0100    0.0100    0.0100    0.0100    0.0100    0.0100    0.0100
0.0100    0.0100    0.0100    0.0100    0.0100    0.0100    0.0100    0.0100
0.0100    0.0100    0.0100    0.0100    0.0100    0.0100    0.0100    0.0100
0.0100    0.0100    0.0100    0.0100    0.0100    0.0100    0.0100    0.0100
0.0100    0.0100    0.0100    0.0100    0.0100    0.0100    0.0100    0.0100
0.0100    0.0100    0.0100    0.0100    0.0100    0.0100    0.0100    0.0100
0.0100    0.0100    0.0100    0.0100    0.0100    0.0100    0.0100    0.0100
0.0100    0.0100    0.0100    0.0100    0.0100    0.0100    0.0100    0.0100
0.0100    0.0100    0.0100    0.0100    0.0100    0.0100    0.0100    0.0100
0.0100    0.0100    0.0100    0.0100    0.0100    0.0100    0.0100    0.0100
0.0100    0.0100    0.0100    0.0100    0.0100    0.0100    0.0100    0.0100
0.0100    0.0100    0.0100    0.0100    0.0100    0.0100    0.0100    0.0100
0.0100    0.0100    0.0100    0.0100    0.0100    0.0100    0.0100    0.0100
0.0100    0.0100    0.0100    0.0100    0.0100    0.0100    0.0100    0.0100
0.0100    0.0100    0.0100    0.0100    0.0100    0.0100    0.0100    0.0100
0.0100    0.0100    0.0100    0.0100    0.0100    0.0100    0.0100    0.0100
0.0100    0.0100    0.0100    0.0100    0.0100    0.0100    0.0100    0.0100
0.0100    0.0100    0.0100    0.0100    0.0100    0.0100    0.0100    0.0100
0.0100    0.0100    0.0100    0.0100    0.0100    0.0100    0.0100    0.0100
0.0100    0.0100    0.0100    0.0100    0.0100    0.0100    0.0100    0.0100
0.0100    0.0100    0.0100    0.0100    0.0100    0.0100    0.0100    0.0100
0.0100    0.0100    0.0100    0.0100    0.0100    0.0100    0.0100    0.0100
0.0100    0.0100    0.0100    0.0100    0.0100    0.0100    0.0100    0.0100
0.0100    0.0100    0.0100    0.0100    0.0100    0.0100    0.0100    0.0100
0.0100    0.0100    0.0100    0.0100    0.0100    0.0100    0.0100    0.0100
0.0100    0.0100    0.0100    0.0100    0.0100    0.0100    0.0100    0.0100
0.0100    0.0100    0.0100    0.0100    0.0100    0.0100    0.0100    0.0100
0.0100    0.0100    0.0100    0.0100    0.0100    0.0100    0.0100    0.0100
0.0100    0.0100    0.0100    0.0100    0.0100    0.0100    0.0100    0.0100
0.0100    0.0100    0.0100    0.0100    0.0100    0.0100    0.0100    0.0100
0.0100    0.0100    0.0100    0.0100    0.0100    0.0100    0.0100    0.0100
0.0100    0.0100    0.0100    0.0100    0.0100    0.0100    0.0100    0.0100
0.0100    0.0100    0.0100    0.0100    0.0100    0.0100    0.0100    0.0100
0.0100    0.0100    0.0100    0.0100    0.0100    0.0100    0.0100    0.0100
0.0100    0.0100    0.0100    0.0100    0.0100    0.0100    0.0100    0.0100
0.0100    0.0100    0.0100    0.0100    0.0100    0.0100    0.0100    0.0100
0.0100    0.0100    0.0100    0.0100    0.0100    0.0100    0.0100    0.0100
0.0100    0.0100    0.0100    0.0100    0.0100    0.0100    0.0100    0.0100
0.0100    0.0100    0.0100    0.0100    0.0100    0.0100    0.0100    0.0100
0.0100    0.0100    0.0100    0.0100
</PP_RAB>
</PP_MESH>
<PP_LOCAL type="real"  size=" 732" columns="4">
-8.7551426833E+00   -8.7541952419E+00   -8.7513538533E+00   -8.7466214540E+00
-8.7400029190E+00   -8.7315050538E+00   -8.7211365797E+00   -8.7089081121E+00
-8.6948321354E+00   -8.6789229730E+00   -8.6611967527E+00   -8.6416713691E+00
-8.6203664409E+00   -8.5973032662E+00   -8.5725047731E+00   -8.5459954676E+00
-8.5178013793E+00   -8.4879500041E+00   -8.4564702442E+00   -8.4233923470E+00
-8.3887478417E+00   -8.3525694751E+00   -8.3148911456E+00   -8.2757478371E+00
-8.2351755521E+00   -8.1932112445E+00   -8.1498927528E+00   -8.1052587334E+00
-8.0593485944E+00   -8.0122024306E+00   -7.9638609590E+00   -7.9143654563E+00
-7.8637576966E+00   -7.8120798925E+00   -7.7593746358E+00   -7.7056848423E+00
-7.6510536963E+00   -7.5955245993E+00   -7.5391411190E+00   -7.4819469418E+00
-7.4239858265E+00   -7.3653015607E+00   -7.3059379194E+00   -7.2459386249E+00
-7.1853473100E+00   -7.1242074817E+00   -7.0625624882E+00   -7.0004554864E+00
-6.9379294120E+00   -6.8750269501E+00   -6.8117905082E+00   -6.7482621899E+00
-6.6844837693E+00   -6.6204966667E+00   -6.5563419251E+00   -6.4920601873E+00
-6.4276916723E+00   -6.3632761538E+00   -6.2988529370E+00   -6.2344608363E+00
-6.1701381522E+00   -6.1059226486E+00   -6.0418515279E+00   -5.9779614074E+00
-5.9142882935E+00   -5.8508675554E+00   -5.7877338976E+00   -5.7249213315E+00
-5.6624631456E+00   -5.6003918741E+00   -5.5387392647E+00   -5.4775362442E+00
-5.4168128833E+00   -5.3565983592E+00   -5.2969209169E+00   -5.2378078289E+00
-5.1792853530E+00   -5.1213786887E+00   -5.0641119317E+00   -5.0075080266E+00
-4.9515887184E+00   -4.8963745017E+00   -4.8418845684E+00   -4.7881367540E+00
-4.7351474820E+00   -4.6829317068E+00   -4.6315028544E+00   -4.5808727627E+00
-4.5310516190E+00   -4.4820478966E+00   -4.4338682901E+00   -4.3865176484E+00
-4.3399989069E+00   -4.2943130185E+00   -4.2494588824E+00   -4.2054332723E+00
-4.1622307628E+00   -4.1198436551E+00   -4.0782619004E+00   -4.0374730217E+00
-3.9974620668E+00   -3.9582114028E+00   -3.9197011747E+00   -3.8819109319E+00
-3.8448210711E+00   -3.8084128372E+00   -3.7726682475E+00   -3.7375700548E+00
-3.7031017019E+00   -3.6692472776E+00   -3.6359914751E+00   -3.6033195522E+00
-3.5712172943E+00   -3.5396709788E+00   -3.5086673410E+00   -3.4781935431E+00
-3.4482371435E+00   -3.4187860694E+00   -3.3898285901E+00   -3.3613532925E+00
-3.3333490583E+00   -3.3058050434E+00   -3.2787106577E+00   -3.2520555481E+00
-3.2258295827E+00   -3.2000228354E+00   -3.1746255739E+00   -3.1496282530E+00
-3.1250215322E+00   -3.1007963118E+00   -3.0769437902E+00   -3.0534554354E+00
-3.0303229695E+00   -3.0075383650E+00   -2.9850938337E+00   -2.9629818184E+00
-2.9411949841E+00   -2.9197262100E+00   -2.8985685815E+00   -2.8777153832E+00
-2.8571600915E+00   -2.8368963680E+00   -2.8169180525E+00   -2.7972191576E+00
-2.7777938617E+00   -2.7586365042E+00   -2.7397415794E+00   -2.7211037315E+00
-2.7027177494E+00   -2.6845785619E+00   -2.6666812330E+00   -2.6490209575E+00
-2.6315930567E+00   -2.6143929742E+00   -2.5974162719E+00   -2.5806586262E+00
-2.5641158245E+00   -2.5477837614E+00   -2.5316584354E+00   -2.5157359459E+00
-2.5000124897E+00   -2.4844843579E+00   -2.4691479333E+00   -2.4539996877E+00
-2.4390361787E+00   -2.4242540473E+00   -2.4096500157E+00   -2.3952208843E+00
-2.3809635300E+00   -2.3668749034E+00   -2.3529520269E+00   -2.3391919926E+00
-2.3255919602E+00   -2.3121491550E+00   -2.2988608662E+00   -2.2857244449E+00
-2.2727373025E+00   -2.2598969088E+00   -2.2472007903E+00   -2.2346465292E+00
-2.2222317610E+00   -2.2099541738E+00   -2.1978115062E+00   -2.1858015464E+00
-2.1739221308E+00   -2.1621711423E+00   -2.1505465095E+00   -2.1390462053E+00
-2.1276682457E+00   -2.1164106887E+00   -2.1052716332E+00   -2.0942492179E+00
-2.0833416203E+00   -2.0725470556E+00   -2.0618637759E+00   -2.0512900691E+00
-2.0408242580E+00   -2.0304646995E+00   -2.0202097838E+00   -2.0100579332E+00
-2.0000076019E+00   -1.9900572745E+00   -1.9802054658E+00   -1.9704507199E+00
-1.9607916094E+00   -1.9512267347E+00   -1.9417547235E+00   -1.9323742298E+00
-1.9230839337E+00   -1.9138825405E+00   -1.9047687802E+00   -1.8957414067E+00
-1.8867991976E+00   -1.8779409534E+00   -1.8691654970E+00   -1.8604716732E+00
-1.8518583483E+00   -1.8433244092E+00   -1.8348687636E+00   -1.8264903389E+00
-1.8181880820E+00   -1.8099609592E+00   -1.8018079549E+00   -1.7937280721E+00
-1.7857203315E+00   -1.7777837711E+00   -1.7699174461E+00   -1.7621204283E+00
-1.7543918057E+00   -1.7467306823E+00   -1.7391361777E+00   -1.7316074266E+00
-1.7241435789E+00   -1.7167437988E+00   -1.7094072649E+00   -1.7021331700E+00
-1.6949207201E+00   -1.6877691351E+00   -1.6806776476E+00   -1.6736455034E+00
-1.6666719607E+00   -1.6597562898E+00   -1.6528977736E+00   -1.6460957062E+00
-1.6393493936E+00   -1.6326581533E+00   -1.6260213134E+00   -1.6194382134E+00
-1.6129082030E+00   -1.6064306427E+00   -1.6000049031E+00   -1.5936303647E+00
-1.5873064181E+00   -1.5810324634E+00   -1.5748079100E+00   -1.5686321768E+00
-1.5625046917E+00   -1.5564248914E+00   -1.5503922215E+00   -1.5444061361E+00
-1.5384660976E+00   -1.5325715768E+00   -1.5267220525E+00   -1.5209170114E+00
-1.5151559479E+00   -1.5094383644E+00   -1.5037637702E+00   -1.4981316826E+00
-1.4925416255E+00   -1.4869931303E+00   -1.4814857352E+00   -1.4760189852E+00
-1.4705924319E+00   -1.4652056338E+00   -1.4598581554E+00   -1.4545495678E+00
-1.4492794484E+00   -1.4440473805E+00   -1.4388529534E+00   -1.4336957624E+00
-1.4285754086E+00   -1.4234914987E+00   -1.4184436450E+00   -1.4134314652E+00
-1.4084545825E+00   -1.4035126254E+00   -1.3986052275E+00   -1.3937320276E+00
-1.3888926694E+00   -1.3840868016E+00   -1.3793140778E+00   -1.3745741563E+00
-1.3698667000E+00   -1.3651913767E+00   -1.3605478583E+00   -1.3559358214E+00
-1.3513549470E+00   -1.3468049203E+00   -1.3422854307E+00   -1.3377961719E+00
-1.3333368415E+00   -1.3289071413E+00   -1.3245067769E+00   -1.3201354578E+00
-1.3157928974E+00   -1.3114788129E+00   -1.3071929251E+00   -1.3029349584E+00
-1.2987046409E+00   -1.2945017041E+00   -1.2903258830E+00   -1.2861769162E+00
-1.2820545453E+00   -1.2779585155E+00   -1.2738885751E+00   -1.2698444756E+00
-1.2658259717E+00   -1.2618328212E+00   -1.2578647848E+00   -1.2539216265E+00
-1.2500031129E+00   -1.2461090138E+00   -1.2422391016E+00   -1.2383931518E+00
-1.2345709424E+00   -1.2307722543E+00   -1.2269968711E+00   -1.2232445790E+00
-1.2195151667E+00   -1.2158084256E+00   -1.2121241497E+00   -1.2084621352E+00
-1.2048221811E+00   -1.2012040886E+00   -1.1976076614E+00   -1.1940327054E+00
-1.1904790288E+00   -1.1869464424E+00   -1.1834347589E+00   -1.1799437933E+00
-1.1764733628E+00   -1.1730232867E+00   -1.1695933866E+00   -1.1661834859E+00
-1.1627934102E+00   -1.1594229871E+00   -1.1560720462E+00   -1.1527404192E+00
-1.1494279394E+00   -1.1461344424E+00   -1.1428597653E+00   -1.1396037474E+00
-1.1363662296E+00   -1.1331470547E+00   -1.1299460672E+00   -1.1267631135E+00
-1.1235980416E+00   -1.1204507011E+00   -1.1173209436E+00   -1.1142086221E+00
-1.1111135912E+00   -1.1080357073E+00   -1.1049748284E+00   -1.1019308138E+00
-1.0989035245E+00   -1.0958928232E+00   -1.0928985738E+00   -1.0899206418E+00
-1.0869588942E+00   -1.0840131995E+00   -1.0810834275E+00   -1.0781694494E+00
-1.0752711379E+00   -1.0723883669E+00   -1.0695210118E+00   -1.0666689493E+00
-1.0638320573E+00   -1.0610102152E+00   -1.0582033034E+00   -1.0554112039E+00
-1.0526337996E+00   -1.0498709749E+00   -1.0471226152E+00   -1.0443886073E+00
-1.0416688391E+00   -1.0389631995E+00   -1.0362715787E+00   -1.0335938682E+00
-1.0309299603E+00   -1.0282797486E+00   -1.0256431277E+00   -1.0230199934E+00
-1.0204102424E+00   -1.0178137726E+00   -1.0152304829E+00   -1.0126602731E+00
-1.0101030442E+00   -1.0075586981E+00   -1.0050271376E+00   -1.0025082667E+00
-1.0000019901E+00   -9.9750821363E-01   -9.9502684404E-01   -9.9255778894E-01
-9.9010095690E-01   -9.8765625737E-01   -9.8522360070E-01   -9.8280289812E-01
-9.8039406174E-01   -9.7799700451E-01   -9.7561164025E-01   -9.7323788361E-01
-9.7087565007E-01   -9.6852485592E-01   -9.6618541827E-01   -9.6385725502E-01
-9.6154028488E-01   -9.5923442730E-01   -9.5693960255E-01   -9.5465573161E-01
-9.5238273626E-01   -9.5012053899E-01   -9.4786906305E-01   -9.4562823238E-01
-9.4339797168E-01   -9.4117820633E-01   -9.3896886241E-01   -9.3676986672E-01
-9.3458114672E-01   -9.3240263054E-01   -9.3023424700E-01   -9.2807592558E-01
-9.2592759639E-01   -9.2378919020E-01   -9.2166063843E-01   -9.1954187311E-01
-9.1743282690E-01   -9.1533343308E-01   -9.1324362554E-01   -9.1116333877E-01
-9.0909250786E-01   -9.0703106848E-01   -9.0497895688E-01   -9.0293610990E-01
-9.0090246494E-01   -8.9887795996E-01   -8.9686253349E-01   -8.9485612460E-01
-8.9285867289E-01   -8.9087011852E-01   -8.8889040218E-01   -8.8691946508E-01
-8.8495724894E-01   -8.8300369601E-01   -8.8105874906E-01   -8.7912235132E-01
-8.7719444657E-01   -8.7527497904E-01   -8.7336389347E-01   -8.7146113508E-01
-8.6956664956E-01   -8.6768038307E-01   -8.6580228224E-01   -8.6393229417E-01
-8.6207036640E-01   -8.6021644692E-01   -8.5837048419E-01   -8.5653242709E-01
-8.5470222494E-01   -8.5287982749E-01   -8.5106518494E-01   -8.4925824788E-01
-8.4745896734E-01   -8.4566729476E-01   -8.4388318199E-01   -8.4210658127E-01
-8.4033744528E-01   -8.3857572705E-01   -8.3682138003E-01   -8.3507435806E-01
-8.3333461536E-01   -8.3160210652E-01   -8.2987678652E-01   -8.2815861071E-01
-8.2644753481E-01   -8.2474351490E-01   -8.2304650742E-01   -8.2135646918E-01
-8.1967335734E-01   -8.1799712939E-01   -8.1632774320E-01   -8.1466515696E-01
-8.1300932921E-01   -8.1136021882E-01   -8.0971778499E-01   -8.0808198727E-01
-8.0645278552E-01   -8.0483013992E-01   -8.0321401097E-01   -8.0160435951E-01
-8.0000114665E-01   -7.9840433386E-01   -7.9681388287E-01   -7.9522975576E-01
-7.9365191487E-01   -7.9208032286E-01   -7.9051494269E-01   -7.8895573759E-01
-7.8740267111E-01   -7.8585570705E-01   -7.8431480953E-01   -7.8277994293E-01
-7.8125107191E-01   -7.7972816140E-01   -7.7821117663E-01   -7.7670008306E-01
-7.7519484646E-01   -7.7369543283E-01   -7.7220180844E-01   -7.7071393985E-01
-7.6923179383E-01   -7.6775533744E-01   -7.6628453798E-01   -7.6481936300E-01
-7.6335978030E-01   -7.6190575792E-01   -7.6045726415E-01   -7.5901426752E-01
-7.5757673680E-01   -7.5614464098E-01   -7.5471794930E-01   -7.5329663124E-01
-7.5188065648E-01   -7.5046999496E-01   -7.4906461682E-01   -7.4766449245E-01
-7.4626959242E-01   -7.4487988756E-01   -7.4349534890E-01   -7.4211594767E-01
-7.4074165536E-01   -7.3937244361E-01   -7.3800828431E-01   -7.3664914955E-01
-7.3529501161E-01   -7.3394584300E-01   -7.3260161640E-01   -7.3126230472E-01
-7.2992788105E-01   -7.2859831867E-01   -7.2727359107E-01   -7.2595367193E-01
-7.2463853511E-01   -7.2332815467E-01   -7.2202250485E-01   -7.2072156009E-01
-7.1942529499E-01   -7.1813368436E-01   -7.1684670316E-01   -7.1556432655E-01
-7.1428652987E-01   -7.1301328862E-01   -7.1174457849E-01   -7.1048037532E-01
-7.0922065516E-01   -7.0796539419E-01   -7.0671456878E-01   -7.0546815546E-01
-7.0422613092E-01   -7.0298847204E-01   -7.0175515582E-01   -7.0052615946E-01
-6.9930146030E-01   -6.9808103584E-01   -6.9686486374E-01   -6.9565292181E-01
-6.9444518801E-01   -6.9324164048E-01   -6.9204225748E-01   -6.9084701744E-01
-6.8965589892E-01   -6.8846888064E-01   -6.8728594148E-01   -6.8610706043E-01
-6.8493221665E-01   -6.8376138944E-01   -6.8259455824E-01   -6.8143170262E-01
-6.8027280230E-01   -6.7911783713E-01   -6.7796678710E-01   -6.7681963235E-01
-6.7567635313E-01   -6.7453692983E-01   -6.7340134298E-01   -6.7226957324E-01
-6.7114160139E-01   -6.7001740835E-01   -6.6889697516E-01   -6.6778028299E-01
-6.6666731313E-01   -6.6555804701E-01   -6.6445246617E-01   -6.6335055227E-01
-6.6225228710E-01   -6.6115765257E-01   -6.6006663069E-01   -6.5897920363E-01
-6.5789535364E-01   -6.5681506310E-01   -6.5573831450E-01   -6.5466509045E-01
-6.5359537368E-01   -6.5252914702E-01   -6.5146639342E-01   -6.5040709594E-01
-6.4935123774E-01   -6.4829880210E-01   -6.4724977242E-01   -6.4620413217E-01
-6.4516186497E-01   -6.4412295451E-01   -6.4308738460E-01   -6.4205513917E-01
-6.4102620222E-01   -6.4000055788E-01   -6.3897819037E-01   -6.3795908400E-01
-6.3694322320E-01   -6.3593059249E-01   -6.3492117649E-01   -6.3391495992E-01
-6.3291192758E-01   -6.3191206439E-01   -6.3091535534E-01   -6.2992178555E-01
-6.2893134020E-01   -6.2794400457E-01   -6.2695976405E-01   -6.2597860409E-01
-6.2500051027E-01   -6.2402546824E-01   -6.2305346372E-01   -6.2208448256E-01
-6.2111851065E-01   -6.2015553402E-01   -6.1919553875E-01   -6.1823851101E-01
-6.1728443707E-01   -6.1633330327E-01   -6.1538509605E-01   -6.1443980191E-01
-6.1349740745E-01   -6.1255789936E-01   -6.1162126438E-01   -6.1068748937E-01
-6.0975656124E-01   -6.0882846699E-01   -6.0790319370E-01   -6.0698072853E-01
-6.0606105872E-01   -6.0514417158E-01   -6.0423005450E-01   -6.0331869494E-01
-6.0241008045E-01   -6.0150419863E-01   -6.0060103720E-01   -5.9970058390E-01
-5.9880282657E-01   -5.9790775313E-01   -5.9701535156E-01   -5.9612560991E-01
-5.9523851630E-01   -5.9435405894E-01   -5.9347222609E-01   -5.9259300609E-01
-5.9171638733E-01   -5.9084235830E-01   -5.8997090753E-01   -5.8910202363E-01
-5.8823569528E-01   -5.8737191122E-01   -5.8651066025E-01   -5.8565193126E-01
-5.8479571318E-01   -5.8394199501E-01   -5.8309076582E-01   -5.8224201475E-01
-5.8139573098E-01   -5.8055190377E-01   -5.7971052244E-01   -5.7887157638E-01
-5.7803505503E-01   -5.7720094788E-01   -5.7636924451E-01   -5.7553993454E-01
-5.7471300764E-01   -5.7388845357E-01   -5.7306626213E-01   -5.7224642317E-01
-5.7142892661E-01   -5.7061376244E-01   -5.6980092067E-01   -5.6899039141E-01