<UPF version="2.0.1">
<PP_INFO>

This pseudopotential file has been produced using the code
ONCVPSP  (Optimized Norm-Conservinng Vanderbilt PSeudopotential)
scalar-relativistic version 3.2.3 08/16/2016 by D. R. Hamann
The code is available through a link at URL www.mat-simresearch.com.
Documentation with the package provides a full discription of the
input data below.


While it is not required under the terms of the GNU GPL, it is
suggested that you cite D. R. Hamann, Phys. Rev. B 88, 085117 (2013)
in any publication using these pseudopotentials.

<PP_INPUTFILE>
# ATOM AND REFERENCE CONFIGURATION
# atsym  z   nc   nv     iexc    psfile
Kr 36.00    6    2   -1012      upf
#
#   n    l    f        energy (Ha)
1    0    2.00
2    0    2.00
2    1    6.00
3    0    2.00
3    1    6.00
3    2   10.00
4    0    2.00
4    1    6.00
#
# PSEUDOPOTENTIAL AND OPTIMIZATION
# lmax
2
#
#   l,   rc,      ep,       ncon, nbas, qcut
0   1.75000  -0.85347    4    8   6.10000
1   1.50000  -0.34508    4    7   7.00000
2   1.80000   0.10000    4    7   7.60000
#
# LOCAL POTENTIAL
# lloc, lpopt,  rc(5),   dvloc0
4    5   1.50000      0.00000
#
# VANDERBILT-KLEINMAN-BYLANDER PROJECTORs
# l, nproj, debl
0    2   3.00000
1    2   3.00000
2    2   4.00000
#
# MODEL CORE CHARGE
# icmod, fcfact, rcfact
3   7.00000   1.24000
#
# LOG DERIVATIVE ANALYSIS
# epsh1, epsh2, depsh
-12.00   12.00    0.02
#
# OUTPUT GRID
# rlmax, drl
6.00    0.01
#
# TEST CONFIGURATIONS
# ncnf
0
# nvcnf
#   n    l    f
</PP_INPUTFILE>
</PP_INFO>
<!--                               -->
<!-- END OF HUMAN READABLE SECTION -->
<!--                               -->
<PP_HEADER
generated="Generated using ONCVPSP code by D. R. Hamann"
author="anonymous"
date="170124"
comment=""
element="Kr"
pseudo_type="NC"
relativistic="scalar"
is_ultrasoft="F"
is_paw="F"
is_coulomb="F"
has_so="F"
has_wfc="F"
has_gipaw="F"
core_correction="T"
functional="SLA  PW   NOGX NOGC"
z_valence="    8.00"
total_psenergy="  -3.72533945862E+01"
rho_cutoff="   1.00500000000E+01"
l_max="2"
l_local="-1"
mesh_size="  1006"
number_of_wfc="2"
number_of_proj="6"/>
<PP_MESH>
<PP_R type="real"  size="1006" columns="8">
0.0000    0.0100    0.0200    0.0300    0.0400    0.0500    0.0600    0.0700
0.0800    0.0900    0.1000    0.1100    0.1200    0.1300    0.1400    0.1500
0.1600    0.1700    0.1800    0.1900    0.2000    0.2100    0.2200    0.2300
0.2400    0.2500    0.2600    0.2700    0.2800    0.2900    0.3000    0.3100
0.3200    0.3300    0.3400    0.3500    0.3600    0.3700    0.3800    0.3900
0.4000    0.4100    0.4200    0.4300    0.4400    0.4500    0.4600    0.4700
0.4800    0.4900    0.5000    0.5100    0.5200    0.5300    0.5400    0.5500
0.5600    0.5700    0.5800    0.5900    0.6000    0.6100    0.6200    0.6300
0.6400    0.6500    0.6600    0.6700    0.6800    0.6900    0.7000    0.7100
0.7200    0.7300    0.7400    0.7500    0.7600    0.7700    0.7800    0.7900
0.8000    0.8100    0.8200    0.8300    0.8400    0.8500    0.8600    0.8700
0.8800    0.8900    0.9000    0.9100    0.9200    0.9300    0.9400    0.9500
0.9600    0.9700    0.9800    0.9900    1.0000    1.0100    1.0200    1.0300
1.0400    1.0500    1.0600    1.0700    1.0800    1.0900    1.1000    1.1100
1.1200    1.1300    1.1400    1.1500    1.1600    1.1700    1.1800    1.1900
1.2000    1.2100    1.2200    1.2300    1.2400    1.2500    1.2600    1.2700
1.2800    1.2900    1.3000    1.3100    1.3200    1.3300    1.3400    1.3500
1.3600    1.3700    1.3800    1.3900    1.4000    1.4100    1.4200    1.4300
1.4400    1.4500    1.4600    1.4700    1.4800    1.4900    1.5000    1.5100
1.5200    1.5300    1.5400    1.5500    1.5600    1.5700    1.5800    1.5900
1.6000    1.6100    1.6200    1.6300    1.6400    1.6500    1.6600    1.6700
1.6800    1.6900    1.7000    1.7100    1.7200    1.7300    1.7400    1.7500
1.7600    1.7700    1.7800    1.7900    1.8000    1.8100    1.8200    1.8300
1.8400    1.8500    1.8600    1.8700    1.8800    1.8900    1.9000    1.9100
1.9200    1.9300    1.9400    1.9500    1.9600    1.9700    1.9800    1.9900
2.0000    2.0100    2.0200    2.0300    2.0400    2.0500    2.0600    2.0700
2.0800    2.0900    2.1000    2.1100    2.1200    2.1300    2.1400    2.1500
2.1600    2.1700    2.1800    2.1900    2.2000    2.2100    2.2200    2.2300
2.2400    2.2500    2.2600    2.2700    2.2800    2.2900    2.3000    2.3100
2.3200    2.3300    2.3400    2.3500    2.3600    2.3700    2.3800    2.3900
2.4000    2.4100    2.4200    2.4300    2.4400    2.4500    2.4600    2.4700
2.4800    2.4900    2.5000    2.5100    2.5200    2.5300    2.5400    2.5500
2.5600    2.5700    2.5800    2.5900    2.6000    2.6100    2.6200    2.6300
2.6400    2.6500    2.6600    2.6700    2.6800    2.6900    2.7000    2.7100
2.7200    2.7300    2.7400    2.7500    2.7600    2.7700    2.7800    2.7900
2.8000    2.8100    2.8200    2.8300    2.8400    2.8500    2.8600    2.8700
2.8800    2.8900    2.9000    2.9100    2.9200    2.9300    2.9400    2.9500
2.9600    2.9700    2.9800    2.9900    3.0000    3.0100    3.0200    3.0300
3.0400    3.0500    3.0600    3.0700    3.0800    3.0900    3.1000    3.1100
3.1200    3.1300    3.1400    3.1500    3.1600    3.1700    3.1800    3.1900
3.2000    3.2100    3.2200    3.2300    3.2400    3.2500    3.2600    3.2700
3.2800    3.2900    3.3000    3.3100    3.3200    3.3300    3.3400    3.3500
3.3600    3.3700    3.3800    3.3900    3.4000    3.4100    3.4200    3.4300
3.4400    3.4500    3.4600    3.4700    3.4800    3.4900    3.5000    3.5100
3.5200    3.5300    3.5400    3.5500    3.5600    3.5700    3.5800    3.5900
3.6000    3.6100    3.6200    3.6300    3.6400    3.6500    3.6600    3.6700
3.6800    3.6900    3.7000    3.7100    3.7200    3.7300    3.7400    3.7500
3.7600    3.7700    3.7800    3.7900    3.8000    3.8100    3.8200    3.8300
3.8400    3.8500    3.8600    3.8700    3.8800    3.8900    3.9000    3.9100
3.9200    3.9300    3.9400    3.9500    3.9600    3.9700    3.9800    3.9900
4.0000    4.0100    4.0200    4.0300    4.0400    4.0500    4.0600    4.0700
4.0800    4.0900    4.1000    4.1100    4.1200    4.1300    4.1400    4.1500
4.1600    4.1700    4.1800    4.1900    4.2000    4.2100    4.2200    4.2300
4.2400    4.2500    4.2600    4.2700    4.2800    4.2900    4.3000    4.3100
4.3200    4.3300    4.3400    4.3500    4.3600    4.3700    4.3800    4.3900
4.4000    4.4100    4.4200    4.4300    4.4400    4.4500    4.4600    4.4700
4.4800    4.4900    4.5000    4.5100    4.5200    4.5300    4.5400    4.5500
4.5600    4.5700    4.5800    4.5900    4.6000    4.6100    4.6200    4.6300
4.6400    4.6500    4.6600    4.6700    4.6800    4.6900    4.7000    4.7100
4.7200    4.7300    4.7400    4.7500    4.7600    4.7700    4.7800    4.7900
4.8000    4.8100    4.8200    4.8300    4.8400    4.8500    4.8600    4.8700
4.8800    4.8900    4.9000    4.9100    4.9200    4.9300    4.9400    4.9500
4.9600    4.9700    4.9800    4.9900    5.0000    5.0100    5.0200    5.0300
5.0400    5.0500    5.0600    5.0700    5.0800    5.0900    5.1000    5.1100
5.1200    5.1300    5.1400    5.1500    5.1600    5.1700    5.1800    5.1900
5.2000    5.2100    5.2200    5.2300    5.2400    5.2500    5.2600    5.2700
5.2800    5.2900    5.3000    5.3100    5.3200    5.3300    5.3400    5.3500
5.3600    5.3700    5.3800    5.3900    5.4000    5.4100    5.4200    5.4300
5.4400    5.4500    5.4600    5.4700    5.4800    5.4900    5.5000    5.5100
5.5200    5.5300    5.5400    5.5500    5.5600    5.5700    5.5800    5.5900
5.6000    5.6100    5.6200    5.6300    5.6400    5.6500    5.6600    5.6700
5.6800    5.6900    5.7000    5.7100    5.7200    5.7300    5.7400    5.7500
5.7600    5.7700    5.7800    5.7900    5.8000    5.8100    5.8200    5.8300
5.8400    5.8500    5.8600    5.8700    5.8800    5.8900    5.9000    5.9100
5.9200    5.9300    5.9400    5.9500    5.9600    5.9700    5.9800    5.9900
6.0000    6.0100    6.0200    6.0300    6.0400    6.0500    6.0600    6.0700
6.0800    6.0900    6.1000    6.1100    6.1200    6.1300    6.1400    6.1500
6.1600    6.1700    6.1800    6.1900    6.2000    6.2100    6.2200    6.2300
6.2400    6.2500    6.2600    6.2700    6.2800    6.2900    6.3000    6.3100
6.3200    6.3300    6.3400    6.3500    6.3600    6.3700    6.3800    6.3900
6.4000    6.4100    6.4200    6.4300    6.4400    6.4500    6.4600    6.4700
6.4800    6.4900    6.5000    6.5100    6.5200    6.5300    6.5400    6.5500
6.5600    6.5700    6.5800    6.5900    6.6000    6.6100    6.6200    6.6300
6.6400    6.6500    6.6600    6.6700    6.6800    6.6900    6.7000    6.7100
6.7200    6.7300    6.7400    6.7500    6.7600    6.7700    6.7800    6.7900
6.8000    6.8100    6.8200    6.8300    6.8400    6.8500    6.8600    6.8700
6.8800    6.8900    6.9000    6.9100    6.9200    6.9300    6.9400    6.9500
6.9600    6.9700    6.9800    6.9900    7.0000    7.0100    7.0200    7.0300
7.0400    7.0500    7.0600    7.0700    7.0800    7.0900    7.1000    7.1100
7.1200    7.1300    7.1400    7.1500    7.1600    7.1700    7.1800    7.1900
7.2000    7.2100    7.2200    7.2300    7.2400    7.2500    7.2600    7.2700
7.2800    7.2900    7.3000    7.3100    7.3200    7.3300    7.3400    7.3500
7.3600    7.3700    7.3800    7.3900    7.4000    7.4100    7.4200    7.4300
7.4400    7.4500    7.4600    7.4700    7.4800    7.4900    7.5000    7.5100
7.5200    7.5300    7.5400    7.5500    7.5600    7.5700    7.5800    7.5900
7.6000    7.6100    7.6200    7.6300    7.6400    7.6500    7.6600    7.6700
7.6800    7.6900    7.7000    7.7100    7.7200    7.7300    7.7400    7.7500
7.7600    7.7700    7.7800    7.7900    7.8000    7.8100    7.8200    7.8300
7.8400    7.8500    7.8600    7.8700    7.8800    7.8900    7.9000    7.9100
7.9200    7.9300    7.9400    7.9500    7.9600    7.9700    7.9800    7.9900
8.0000    8.0100    8.0200    8.0300    8.0400    8.0500    8.0600    8.0700
8.0800    8.0900    8.1000    8.1100    8.1200    8.1300    8.1400    8.1500
8.1600    8.1700    8.1800    8.1900    8.2000    8.2100    8.2200    8.2300
8.2400    8.2500    8.2600    8.2700    8.2800    8.2900    8.3000    8.3100
8.3200    8.3300    8.3400    8.3500    8.3600    8.3700    8.3800    8.3900
8.4000    8.4100    8.4200    8.4300    8.4400    8.4500    8.4600    8.4700
8.4800    8.4900    8.5000    8.5100    8.5200    8.5300    8.5400    8.5500
8.5600    8.5700    8.5800    8.5900    8.6000    8.6100    8.6200    8.6300
8.6400    8.6500    8.6600    8.6700    8.6800    8.6900    8.7000    8.7100
8.7200    8.7300    8.7400    8.7500    8.7600    8.7700    8.7800    8.7900
8.8000    8.8100    8.8200    8.8300    8.8400    8.8500    8.8600    8.8700
8.8800    8.8900    8.9000    8.9100    8.9200    8.9300    8.9400    8.9500
8.9600    8.9700    8.9800    8.9900    9.0000    9.0100    9.0200    9.0300
9.0400    9.0500    9.0600    9.0700    9.0800    9.0900    9.1000    9.1100
9.1200    9.1300    9.1400    9.1500    9.1600    9.1700    9.1800    9.1900
9.2000    9.2100    9.2200    9.2300    9.2400    9.2500    9.2600    9.2700
9.2800    9.2900    9.3000    9.3100    9.3200    9.3300    9.3400    9.3500
9.3600    9.3700    9.3800    9.3900    9.4000    9.4100    9.4200    9.4300
9.4400    9.4500    9.4600    9.4700    9.4800    9.4900    9.5000    9.5100
9.5200    9.5300    9.5400    9.5500    9.5600    9.5700    9.5800    9.5900
9.6000    9.6100    9.6200    9.6300    9.6400    9.6500    9.6600    9.6700
9.6800    9.6900    9.7000    9.7100    9.7200    9.7300    9.7400    9.7500
9.7600    9.7700    9.7800    9.7900    9.8000    9.8100    9.8200    9.8300
9.8400    9.8500    9.8600    9.8700    9.8800    9.8900    9.9000    9.9100
9.9200    9.9300    9.9400    9.9500    9.9600    9.9700    9.9800    9.9900
10.0000   10.0100   10.0200   10.0300   10.0400   10.0500
</PP_R>
<PP_RAB type="real"  size="1006" columns="8">
0.0100    0.0100    0.0100    0.0100    0.0100    0.0100    0.0100    0.0100
0.0100    0.0100    0.0100    0.0100    0.0100    0.0100    0.0100    0.0100
0.0100    0.0100    0.0100    0.0100    0.0100    0.0100    0.0100    0.0100
0.0100    0.0100    0.0100    0.0100    0.0100    0.0100    0.0100    0.0100
0.0100    0.0100    0.0100    0.0100    0.0100    0.0100    0.0100    0.0100
0.0100    0.0100    0.0100    0.0100    0.0100    0.0100    0.0100    0.0100
0.0100    0.0100    0.0100    0.0100    0.0100    0.0100    0.0100    0.0100
0.0100    0.0100    0.0100    0.0100    0.0100    0.0100    0.0100    0.0100
0.0100    0.0100    0.0100    0.0100    0.0100    0.0100    0.0100    0.0100
0.0100    0.0100    0.0100    0.0100    0.0100    0.0100    0.0100    0.0100
0.0100    0.0100    0.0100    0.0100    0.0100    0.0100    0.0100    0.0100
0.0100    0.0100    0.0100    0.0100    0.0100    0.0100    0.0100    0.0100
0.0100    0.0100    0.0100    0.0100    0.0100    0.0100    0.0100    0.0100
0.0100    0.0100    0.0100    0.0100    0.0100    0.0100    0.0100    0.0100
0.0100    0.0100    0.0100    0.0100    0.0100    0.0100    0.0100    0.0100
0.0100    0.0100    0.0100    0.0100    0.0100    0.0100    0.0100    0.0100
0.0100    0.0100    0.0100    0.0100    0.0100    0.0100    0.0100    0.0100
0.0100    0.0100    0.0100    0.0100    0.0100    0.0100    0.0100    0.0100
0.0100    0.0100    0.0100    0.0100    0.0100    0.0100    0.0100    0.0100
0.0100    0.0100    0.0100    0.0100    0.0100    0.0100    0.0100    0.0100
0.0100    0.0100    0.0100    0.0100    0.0100    0.0100    0.0100    0.0100
0.0100    0.0100    0.0100    0.0100    0.0100    0.0100    0.0100    0.0100
0.0100    0.0100    0.0100    0.0100    0.0100    0.0100    0.0100    0.0100
0.0100    0.0100    0.0100    0.0100    0.0100    0.0100    0.0100    0.0100
0.0100    0.0100    0.0100    0.0100    0.0100    0.0100    0.0100    0.0100
0.0100    0.0100    0.0100    0.0100    0.0100    0.0100    0.0100    0.0100
0.0100    0.0100    0.0100    0.0100    0.0100    0.0100    0.0100    0.0100
0.0100    0.0100    0.0100    0.0100    0.0100    0.0100    0.0100    0.0100
0.0100    0.0100    0.0100    0.0100    0.0100    0.0100    0.0100    0.0100
0.0100    0.0100    0.0100    0.0100    0.0100    0.0100    0.0100    0.0100
0.0100    0.0100    0.0100    0.0100    0.0100    0.0100    0.0100    0.0100
0.0100    0.0100    0.0100    0.0100    0.0100    0.0100    0.0100    0.0100
0.0100    0.0100    0.0100    0.0100    0.0100    0.0100    0.0100    0.0100
0.0100    0.0100    0.0100    0.0100    0.0100    0.0100    0.0100    0.0100
0.0100    0.0100    0.0100    0.0100    0.0100    0.0100    0.0100    0.0100
0.0100    0.0100    0.0100    0.0100    0.0100    0.0100    0.0100    0.0100
0.0100    0.0100    0.0100    0.0100    0.0100    0.0100    0.0100    0.0100
0.0100    0.0100    0.0100    0.0100    0.0100    0.0100    0.0100    0.0100
0.0100    0.0100    0.0100    0.0100    0.0100    0.0100    0.0100    0.0100
0.0100    0.0100    0.0100    0.0100    0.0100    0.0100    0.0100    0.0100
0.0100    0.0100    0.0100    0.0100    0.0100    0.0100    0.0100    0.0100
0.0100    0.0100    0.0100    0.0100    0.0100    0.0100    0.0100    0.0100
0.0100    0.0100    0.0100    0.0100    0.0100    0.0100    0.0100    0.0100
0.0100    0.0100    0.0100    0.0100    0.0100    0.0100    0.0100    0.0100
0.0100    0.0100    0.0100    0.0100    0.0100    0.0100    0.0100    0.0100
0.0100    0.0100    0.0100    0.0100    0.0100    0.0100    0.0100    0.0100
0.0100    0.0100    0.0100    0.0100    0.0100    0.0100    0.0100    0.0100
0.0100    0.0100    0.0100    0.0100    0.0100    0.0100    0.0100    0.0100
0.0100    0.0100    0.0100    0.0100    0.0100    0.0100    0.0100    0.0100
0.0100    0.0100    0.0100    0.0100    0.0100    0.0100    0.0100    0.0100
0.0100    0.0100    0.0100    0.0100    0.0100    0.0100    0.0100    0.0100
0.0100    0.0100    0.0100    0.0100    0.0100    0.0100    0.0100    0.0100
0.0100    0.0100    0.0100    0.0100    0.0100    0.0100    0.0100    0.0100
0.0100    0.0100    0.0100    0.0100    0.0100    0.0100    0.0100    0.0100
0.0100    0.0100    0.0100    0.0100    0.0100    0.0100    0.0100    0.0100
0.0100    0.0100    0.0100    0.0100    0.0100    0.0100    0.0100    0.0100
0.0100    0.0100    0.0100    0.0100    0.0100    0.0100    0.0100    0.0100
0.0100    0.0100    0.0100    0.0100    0.0100    0.0100    0.0100    0.0100
0.0100    0.0100    0.0100    0.0100    0.0100    0.0100    0.0100    0.0100
0.0100    0.0100    0.0100    0.0100    0.0100    0.0100    0.0100    0.0100
0.0100    0.0100    0.0100    0.0100    0.0100    0.0100    0.0100    0.0100
0.0100    0.0100    0.0100    0.0100    0.0100    0.0100    0.0100    0.0100
0.0100    0.0100    0.0100    0.0100    0.0100    0.0100    0.0100    0.0100
0.0100    0.0100    0.0100    0.0100    0.0100    0.0100    0.0100    0.0100
0.0100    0.0100    0.0100    0.0100    0.0100    0.0100    0.0100    0.0100
0.0100    0.0100    0.0100    0.0100    0.0100    0.0100    0.0100    0.0100
0.0100    0.0100    0.0100    0.0100    0.0100    0.0100    0.0100    0.0100
0.0100    0.0100    0.0100    0.0100    0.0100    0.0100    0.0100    0.0100
0.0100    0.0100    0.0100    0.0100    0.0100    0.0100    0.0100    0.0100
0.0100    0.0100    0.0100    0.0100    0.0100    0.0100    0.0100    0.0100
0.0100    0.0100    0.0100    0.0100    0.0100    0.0100    0.0100    0.0100
0.0100    0.0100    0.0100    0.0100    0.0100    0.0100    0.0100    0.0100
0.0100    0.0100    0.0100    0.0100    0.0100    0.0100    0.0100    0.0100
0.0100    0.0100    0.0100    0.0100    0.0100    0.0100    0.0100    0.0100
0.0100    0.0100    0.0100    0.0100    0.0100    0.0100    0.0100    0.0100
0.0100    0.0100    0.0100    0.0100    0.0100    0.0100    0.0100    0.0100
0.0100    0.0100    0.0100    0.0100    0.0100    0.0100    0.0100    0.0100
0.0100    0.0100    0.0100    0.0100    0.0100    0.0100    0.0100    0.0100
0.0100    0.0100    0.0100    0.0100    0.0100    0.0100    0.0100    0.0100
0.0100    0.0100    0.0100    0.0100    0.0100    0.0100    0.0100    0.0100
0.0100    0.0100    0.0100    0.0100    0.0100    0.0100    0.0100    0.0100
0.0100    0.0100    0.0100    0.0100    0.0100    0.0100    0.0100    0.0100
0.0100    0.0100    0.0100    0.0100    0.0100    0.0100    0.0100    0.0100
0.0100    0.0100    0.0100    0.0100    0.0100    0.0100    0.0100    0.0100
0.0100    0.0100    0.0100    0.0100    0.0100    0.0100    0.0100    0.0100
0.0100    0.0100    0.0100    0.0100    0.0100    0.0100    0.0100    0.0100
0.0100    0.0100    0.0100    0.0100    0.0100    0.0100    0.0100    0.0100
0.0100    0.0100    0.0100    0.0100    0.0100    0.0100    0.0100    0.0100
0.0100    0.0100    0.0100    0.0100    0.0100    0.0100    0.0100    0.0100
0.0100    0.0100    0.0100    0.0100    0.0100    0.0100    0.0100    0.0100
0.0100    0.0100    0.0100    0.0100    0.0100    0.0100    0.0100    0.0100
0.0100    0.0100    0.0100    0.0100    0.0100    0.0100    0.0100    0.0100
0.0100    0.0100    0.0100    0.0100    0.0100    0.0100    0.0100    0.0100
0.0100    0.0100    0.0100    0.0100    0.0100    0.0100    0.0100    0.0100
0.0100    0.0100    0.0100    0.0100    0.0100    0.0100    0.0100    0.0100
0.0100    0.0100    0.0100    0.0100    0.0100    0.0100    0.0100    0.0100
0.0100    0.0100    0.0100    0.0100    0.0100    0.0100    0.0100    0.0100
0.0100    0.0100    0.0100    0.0100    0.0100    0.0100    0.0100    0.0100
0.0100    0.0100    0.0100    0.0100    0.0100    0.0100    0.0100    0.0100
0.0100    0.0100    0.0100    0.0100    0.0100    0.0100    0.0100    0.0100
0.0100    0.0100    0.0100    0.0100    0.0100    0.0100    0.0100    0.0100
0.0100    0.0100    0.0100    0.0100    0.0100    0.0100    0.0100    0.0100
0.0100    0.0100    0.0100    0.0100    0.0100    0.0100    0.0100    0.0100
0.0100    0.0100    0.0100    0.0100    0.0100    0.0100    0.0100    0.0100
0.0100    0.0100    0.0100    0.0100    0.0100    0.0100    0.0100    0.0100
0.0100    0.0100    0.0100    0.0100    0.0100    0.0100    0.0100    0.0100
0.0100    0.0100    0.0100    0.0100    0.0100    0.0100    0.0100    0.0100
0.0100    0.0100    0.0100    0.0100    0.0100    0.0100    0.0100    0.0100
0.0100    0.0100    0.0100    0.0100    0.0100    0.0100    0.0100    0.0100
0.0100    0.0100    0.0100    0.0100    0.0100    0.0100    0.0100    0.0100
0.0100    0.0100    0.0100    0.0100    0.0100    0.0100    0.0100    0.0100
0.0100    0.0100    0.0100    0.0100    0.0100    0.0100    0.0100    0.0100
0.0100    0.0100    0.0100    0.0100    0.0100    0.0100    0.0100    0.0100
0.0100    0.0100    0.0100    0.0100    0.0100    0.0100    0.0100    0.0100
0.0100    0.0100    0.0100    0.0100    0.0100    0.0100    0.0100    0.0100
0.0100    0.0100    0.0100    0.0100    0.0100    0.0100    0.0100    0.0100
0.0100    0.0100    0.0100    0.0100    0.0100    0.0100    0.0100    0.0100
0.0100    0.0100    0.0100    0.0100    0.0100    0.0100    0.0100    0.0100
0.0100    0.0100    0.0100    0.0100    0.0100    0.0100    0.0100    0.0100
0.0100    0.0100    0.0100    0.0100    0.0100    0.0100    0.0100    0.0100
0.0100    0.0100    0.0100    0.0100    0.0100    0.0100    0.0100    0.0100
0.0100    0.0100    0.0100    0.0100    0.0100    0.0100    0.0100    0.0100
0.0100    0.0100    0.0100    0.0100    0.0100    0.0100    0.0100    0.0100
0.0100    0.0100    0.0100    0.0100    0.0100    0.0100    0.0100    0.0100
0.0100    0.0100    0.0100    0.0100    0.0100    0.0100    0.0100    0.0100
0.0100    0.0100    0.0100    0.0100    0.0100    0.0100
</PP_RAB>
</PP_MESH>
<PP_LOCAL type="real"  size="1006" columns="4">
-2.2833482506E+01   -2.2832552946E+01   -2.2829764530E+01   -2.2825118065E+01
-2.2818614896E+01   -2.2810256901E+01   -2.2800046494E+01   -2.2787986622E+01
-2.2774080759E+01   -2.2758332907E+01   -2.2740747592E+01   -2.2721329858E+01
-2.2700085266E+01   -2.2677019887E+01   -2.2652140298E+01   -2.2625453577E+01
-2.2596967298E+01   -2.2566689525E+01   -2.2534628805E+01   -2.2500794164E+01
-2.2465195096E+01   -2.2427841565E+01   -2.2388743989E+01   -2.2347913239E+01
-2.2305360631E+01   -2.2261097920E+01   -2.2215137288E+01   -2.2167491347E+01
-2.2118173121E+01   -2.2067196050E+01   -2.2014573973E+01   -2.1960321131E+01
-2.1904452155E+01   -2.1846982062E+01   -2.1787926248E+01   -2.1727300484E+01
-2.1665120908E+01   -2.1601404023E+01   -2.1536166692E+01   -2.1469426128E+01
-2.1401199899E+01   -2.1331505916E+01   -2.1260362433E+01   -2.1187788045E+01
-2.1113801682E+01   -2.1038422610E+01   -2.0961670427E+01   -2.0883565059E+01
-2.0804126764E+01   -2.0723376126E+01   -2.0641334059E+01   -2.0558021803E+01
-2.0473460923E+01   -2.0387673315E+01   -2.0300681201E+01   -2.0212507134E+01
-2.0123173994E+01   -2.0032704997E+01   -1.9941123688E+01   -1.9848453950E+01
-1.9754720003E+01   -1.9659946404E+01   -1.9564158054E+01   -1.9467380195E+01
-1.9369638416E+01   -1.9270958654E+01   -1.9171367195E+01   -1.9070890677E+01
-1.8969556092E+01   -1.8867390785E+01   -1.8764422460E+01   -1.8660679175E+01
-1.8556189346E+01   -1.8450981747E+01   -1.8345085505E+01   -1.8238530105E+01
-1.8131345384E+01   -1.8023561528E+01   -1.7915209070E+01   -1.7806318884E+01
-1.7696922182E+01   -1.7587050505E+01   -1.7476735715E+01   -1.7366009989E+01
-1.7254905809E+01   -1.7143455946E+01   -1.7031693455E+01   -1.6919651656E+01
-1.6807364119E+01   -1.6694864651E+01   -1.6582187276E+01   -1.6469366213E+01
-1.6356435862E+01   -1.6243430775E+01   -1.6130385635E+01   -1.6017335232E+01
-1.5904314436E+01   -1.5791358166E+01   -1.5678501366E+01   -1.5565778971E+01
-1.5453225876E+01   -1.5340876903E+01   -1.5228766766E+01   -1.5116930038E+01
-1.5005401113E+01   -1.4894214168E+01   -1.4783403128E+01   -1.4673001625E+01
-1.4563042955E+01   -1.4453560047E+01   -1.4344585413E+01   -1.4236151111E+01
-1.4128288702E+01   -1.4021029212E+01   -1.3914403082E+01   -1.3808440132E+01
-1.3703169518E+01   -1.3598619685E+01   -1.3494818330E+01   -1.3391792354E+01
-1.3289567824E+01   -1.3188169928E+01   -1.3087622936E+01   -1.2987950153E+01
-1.2889173881E+01   -1.2791315377E+01   -1.2694394811E+01   -1.2598431227E+01
-1.2503442498E+01   -1.2409445292E+01   -1.2316455025E+01   -1.2224485827E+01
-1.2133550498E+01   -1.2043660472E+01   -1.1954825776E+01   -1.1867054989E+01
-1.1780355207E+01   -1.1694732004E+01   -1.1610189389E+01   -1.1526729771E+01
-1.1444353920E+01   -1.1363060928E+01   -1.1282848168E+01   -1.1203711260E+01
-1.1125644027E+01   -1.1048638460E+01   -1.0972684673E+01   -1.0897770876E+01
-1.0823883300E+01   -1.0751006267E+01   -1.0679121999E+01   -1.0608210416E+01
-1.0538250217E+01   -1.0469219714E+01   -1.0401097831E+01   -1.0333864556E+01
-1.0267500556E+01   -1.0201987198E+01   -1.0137306528E+01   -1.0073441228E+01
-1.0010374602E+01   -9.9480905352E+00   -9.8865734689E+00   -9.8258083752E+00
-9.7657807310E+00   -9.7064764952E+00   -9.6478820856E+00   -9.5899843583E+00
-9.5327705873E+00   -9.4762284454E+00   -9.4203459863E+00   -9.3651116271E+00
-9.3105141317E+00   -9.2565425957E+00   -9.2031864311E+00   -9.1504353522E+00
-9.0982793624E+00   -9.0467087357E+00   -8.9957140012E+00   -8.9452859241E+00
-8.8954154839E+00   -8.8460938667E+00   -8.7973124547E+00   -8.7490628184E+00
-8.7013367122E+00   -8.6541260658E+00   -8.6074229754E+00   -8.5612196958E+00
-8.5155086355E+00   -8.4702823511E+00   -8.4255335414E+00   -8.3812550420E+00
-8.3374398211E+00   -8.2940809746E+00   -8.2511717223E+00   -8.2087054039E+00
-8.1666754755E+00   -8.1250755060E+00   -8.0838991746E+00   -8.0431402676E+00
-8.0027926754E+00   -7.9628503908E+00   -7.9233075060E+00   -7.8841582109E+00
-7.8453967911E+00   -7.8070176255E+00   -7.7690151855E+00   -7.7313840324E+00
-7.6941188168E+00   -7.6572142765E+00   -7.6206652353E+00   -7.5844666021E+00
-7.5486133694E+00   -7.5131006119E+00   -7.4779234861E+00   -7.4430772287E+00
-7.4085571557E+00   -7.3743586616E+00   -7.3404772181E+00   -7.3069083736E+00
-7.2736477521E+00   -7.2406910522E+00   -7.2080340461E+00   -7.1756725792E+00
-7.1436025687E+00   -7.1118200028E+00   -7.0803209403E+00   -7.0491015089E+00
-7.0181579048E+00   -6.9874863919E+00   -6.9570833003E+00   -6.9269450260E+00
-6.8970680295E+00   -6.8674488350E+00   -6.8380840295E+00   -6.8089702616E+00
-6.7801042408E+00   -6.7514827361E+00   -6.7231025754E+00   -6.6949606440E+00
-6.6670538840E+00   -6.6393792930E+00   -6.6119339230E+00   -6.5847148795E+00
-6.5577193204E+00   -6.5309444548E+00   -6.5043875420E+00   -6.4780458903E+00
-6.4519168563E+00   -6.4259978434E+00   -6.4002863009E+00   -6.3747797230E+00
-6.3494756477E+00   -6.3243716556E+00   -6.2994653693E+00   -6.2747544518E+00
-6.2502366058E+00   -6.2259095730E+00   -6.2017711325E+00   -6.1778191002E+00
-6.1540513281E+00   -6.1304657027E+00   -6.1070601449E+00   -6.0838326085E+00
-6.0607810797E+00   -6.0379035761E+00   -6.0151981460E+00   -5.9926628677E+00
-5.9702958485E+00   -5.9480952240E+00   -5.9260591579E+00   -5.9041858404E+00
-5.8824734887E+00   -5.8609203452E+00   -5.8395246777E+00   -5.8182847787E+00
-5.7971989646E+00   -5.7762655752E+00   -5.7554829736E+00   -5.7348495452E+00
-5.7143636976E+00   -5.6940238599E+00   -5.6738284826E+00   -5.6537760369E+00
-5.6338650144E+00   -5.6140939271E+00   -5.5944613064E+00   -5.5749657032E+00
-5.5556056878E+00   -5.5363798491E+00   -5.5172867945E+00   -5.4983251499E+00
-5.4794935589E+00   -5.4607906832E+00   -5.4422152019E+00   -5.4237658114E+00
-5.4054412253E+00   -5.3872401738E+00   -5.3691614040E+00   -5.3512036795E+00
-5.3333657800E+00   -5.3156465014E+00   -5.2980446554E+00   -5.2805590693E+00
-5.2631885861E+00   -5.2459320640E+00   -5.2287883762E+00   -5.2117564111E+00
-5.1948350716E+00   -5.1780232754E+00   -5.1613199543E+00   -5.1447240544E+00
-5.1282345360E+00   -5.1118503729E+00   -5.0955705526E+00   -5.0793940761E+00
-5.0633199576E+00   -5.0473472242E+00   -5.0314749160E+00   -5.0157020857E+00
-5.0000277983E+00   -4.9844511312E+00   -4.9689711737E+00   -4.9535870269E+00
-4.9382978038E+00   -4.9231026285E+00   -4.9080006365E+00   -4.8929909742E+00
-4.8780727990E+00   -4.8632452788E+00   -4.8485075919E+00   -4.8338589271E+00
-4.8192984828E+00   -4.8048254677E+00   -4.7904390999E+00   -4.7761386070E+00
-4.7619232261E+00   -4.7477922032E+00   -4.7337447935E+00   -4.7197802606E+00
-4.7058978771E+00   -4.6920969239E+00   -4.6783766903E+00   -4.6647364736E+00
-4.6511755793E+00   -4.6376933205E+00   -4.6242890183E+00   -4.6109620013E+00
-4.5977116055E+00   -4.5845371743E+00   -4.5714380584E+00   -4.5584136155E+00
-4.5454632103E+00   -4.5325862147E+00   -4.5197820069E+00   -4.5070499722E+00
-4.4943895024E+00   -4.4817999958E+00   -4.4692808572E+00   -4.4568314978E+00
-4.4444513351E+00   -4.4321397926E+00   -4.4198963002E+00   -4.4077202938E+00
-4.3956112154E+00   -4.3835685127E+00   -4.3715916397E+00   -4.3596800558E+00
-4.3478332264E+00   -4.3360506227E+00   -4.3243317214E+00   -4.3126760049E+00
-4.3010829611E+00   -4.2895520835E+00   -4.2780828710E+00   -4.2666748277E+00
-4.2553274635E+00   -4.2440402931E+00   -4.2328128366E+00   -4.2216446195E+00
-4.2105351724E+00   -4.1994840308E+00   -4.1884907353E+00   -4.1775548322E+00
-4.1666758708E+00   -4.1558534061E+00   -4.1450869978E+00   -4.1343762105E+00
-4.1237206140E+00   -4.1131197838E+00   -4.1025733001E+00   -4.0920807479E+00
-4.0816417160E+00   -4.0712557991E+00   -4.0609225965E+00   -4.0506417108E+00
-4.0404127487E+00   -4.0302353224E+00   -4.0201090420E+00   -4.0100335228E+00
-4.0000083836E+00   -3.9900332464E+00   -3.9801077362E+00   -3.9702314848E+00
-3.9604041265E+00   -3.9506252990E+00   -3.9408946441E+00   -3.9312118068E+00
-3.9215764352E+00   -3.9119881812E+00   -3.9024466999E+00   -3.8929516500E+00
-3.8835026933E+00   -3.8740994949E+00   -3.8647417234E+00   -3.8554290502E+00
-3.8461611501E+00   -3.8369377010E+00   -3.8277583839E+00   -3.8186228827E+00
-3.8095308845E+00   -3.8004820793E+00   -3.7914761599E+00   -3.7825128223E+00
-3.7735917650E+00   -3.7647126897E+00   -3.7558753007E+00   -3.7470793051E+00