<UPF version="2.0.1">
<PP_INFO>

This pseudopotential file has been produced using the code
ONCVPSP  (Optimized Norm-Conservinng Vanderbilt PSeudopotential)
scalar-relativistic version 3.2.3 08/16/2016 by D. R. Hamann
The code is available through a link at URL www.mat-simresearch.com.
Documentation with the package provides a full discription of the
input data below.


While it is not required under the terms of the GNU GPL, it is
suggested that you cite D. R. Hamann, Phys. Rev. B 88, 085117 (2013)
in any publication using these pseudopotentials.

<PP_INPUTFILE>
# ATOM AND REFERENCE CONFIGURATION
# atsym  z   nc   nv     iexc    psfile
Ne 10.00    1    2   -1012      upf
#
#   n    l    f        energy (Ha)
1    0    2.00
2    0    2.00
2    1    6.00
#
# PSEUDOPOTENTIAL AND OPTIMIZATION
# lmax
1
#
#   l,   rc,      ep,       ncon, nbas, qcut
0   1.30000  -1.32722    4    7   8.70000
1   1.70000  -0.49737    4    7   8.50000
#
# LOCAL POTENTIAL
# lloc, lpopt,  rc(5),   dvloc0
4    5   1.30000      0.00000
#
# VANDERBILT-KLEINMAN-BYLANDER PROJECTORs
# l, nproj, debl
0    2   1.50000
1    2   1.50000
#
# MODEL CORE CHARGE
# icmod, fcfact, rcfact
0   0.00000   0.00000
#
# LOG DERIVATIVE ANALYSIS
# epsh1, epsh2, depsh
-12.00   12.00    0.02
#
# OUTPUT GRID
# rlmax, drl
4.00    0.01
#
# TEST CONFIGURATIONS
# ncnf
0
# nvcnf
#   n    l    f
</PP_INPUTFILE>
</PP_INFO>
<!--                               -->
<!-- END OF HUMAN READABLE SECTION -->
<!--                               -->
<PP_HEADER
generated="Generated using ONCVPSP code by D. R. Hamann"
author="anonymous"
date="170124"
comment=""
element="Ne"
pseudo_type="NC"
relativistic="scalar"
is_ultrasoft="F"
is_paw="F"
is_coulomb="F"
has_so="F"
has_wfc="F"
has_gipaw="F"
core_correction="F"
functional="SLA  PW   NOGX NOGC"
z_valence="    8.00"
total_psenergy="  -6.67765684866E+01"
rho_cutoff="   7.49000000000E+00"
l_max="1"
l_local="-1"
mesh_size="   750"
number_of_wfc="2"
number_of_proj="4"/>
<PP_MESH>
<PP_R type="real"  size=" 750" columns="8">
0.0000    0.0100    0.0200    0.0300    0.0400    0.0500    0.0600    0.0700
0.0800    0.0900    0.1000    0.1100    0.1200    0.1300    0.1400    0.1500
0.1600    0.1700    0.1800    0.1900    0.2000    0.2100    0.2200    0.2300
0.2400    0.2500    0.2600    0.2700    0.2800    0.2900    0.3000    0.3100
0.3200    0.3300    0.3400    0.3500    0.3600    0.3700    0.3800    0.3900
0.4000    0.4100    0.4200    0.4300    0.4400    0.4500    0.4600    0.4700
0.4800    0.4900    0.5000    0.5100    0.5200    0.5300    0.5400    0.5500
0.5600    0.5700    0.5800    0.5900    0.6000    0.6100    0.6200    0.6300
0.6400    0.6500    0.6600    0.6700    0.6800    0.6900    0.7000    0.7100
0.7200    0.7300    0.7400    0.7500    0.7600    0.7700    0.7800    0.7900
0.8000    0.8100    0.8200    0.8300    0.8400    0.8500    0.8600    0.8700
0.8800    0.8900    0.9000    0.9100    0.9200    0.9300    0.9400    0.9500
0.9600    0.9700    0.9800    0.9900    1.0000    1.0100    1.0200    1.0300
1.0400    1.0500    1.0600    1.0700    1.0800    1.0900    1.1000    1.1100
1.1200    1.1300    1.1400    1.1500    1.1600    1.1700    1.1800    1.1900
1.2000    1.2100    1.2200    1.2300    1.2400    1.2500    1.2600    1.2700
1.2800    1.2900    1.3000    1.3100    1.3200    1.3300    1.3400    1.3500
1.3600    1.3700    1.3800    1.3900    1.4000    1.4100    1.4200    1.4300
1.4400    1.4500    1.4600    1.4700    1.4800    1.4900    1.5000    1.5100
1.5200    1.5300    1.5400    1.5500    1.5600    1.5700    1.5800    1.5900
1.6000    1.6100    1.6200    1.6300    1.6400    1.6500    1.6600    1.6700
1.6800    1.6900    1.7000    1.7100    1.7200    1.7300    1.7400    1.7500
1.7600    1.7700    1.7800    1.7900    1.8000    1.8100    1.8200    1.8300
1.8400    1.8500    1.8600    1.8700    1.8800    1.8900    1.9000    1.9100
1.9200    1.9300    1.9400    1.9500    1.9600    1.9700    1.9800    1.9900
2.0000    2.0100    2.0200    2.0300    2.0400    2.0500    2.0600    2.0700
2.0800    2.0900    2.1000    2.1100    2.1200    2.1300    2.1400    2.1500
2.1600    2.1700    2.1800    2.1900    2.2000    2.2100    2.2200    2.2300
2.2400    2.2500    2.2600    2.2700    2.2800    2.2900    2.3000    2.3100
2.3200    2.3300    2.3400    2.3500    2.3600    2.3700    2.3800    2.3900
2.4000    2.4100    2.4200    2.4300    2.4400    2.4500    2.4600    2.4700
2.4800    2.4900    2.5000    2.5100    2.5200    2.5300    2.5400    2.5500
2.5600    2.5700    2.5800    2.5900    2.6000    2.6100    2.6200    2.6300
2.6400    2.6500    2.6600    2.6700    2.6800    2.6900    2.7000    2.7100
2.7200    2.7300    2.7400    2.7500    2.7600    2.7700    2.7800    2.7900
2.8000    2.8100    2.8200    2.8300    2.8400    2.8500    2.8600    2.8700
2.8800    2.8900    2.9000    2.9100    2.9200    2.9300    2.9400    2.9500
2.9600    2.9700    2.9800    2.9900    3.0000    3.0100    3.0200    3.0300
3.0400    3.0500    3.0600    3.0700    3.0800    3.0900    3.1000    3.1100
3.1200    3.1300    3.1400    3.1500    3.1600    3.1700    3.1800    3.1900
3.2000    3.2100    3.2200    3.2300    3.2400    3.2500    3.2600    3.2700
3.2800    3.2900    3.3000    3.3100    3.3200    3.3300    3.3400    3.3500
3.3600    3.3700    3.3800    3.3900    3.4000    3.4100    3.4200    3.4300
3.4400    3.4500    3.4600    3.4700    3.4800    3.4900    3.5000    3.5100
3.5200    3.5300    3.5400    3.5500    3.5600    3.5700    3.5800    3.5900
3.6000    3.6100    3.6200    3.6300    3.6400    3.6500    3.6600    3.6700
3.6800    3.6900    3.7000    3.7100    3.7200    3.7300    3.7400    3.7500
3.7600    3.7700    3.7800    3.7900    3.8000    3.8100    3.8200    3.8300
3.8400    3.8500    3.8600    3.8700    3.8800    3.8900    3.9000    3.9100
3.9200    3.9300    3.9400    3.9500    3.9600    3.9700    3.9800    3.9900
4.0000    4.0100    4.0200    4.0300    4.0400    4.0500    4.0600    4.0700
4.0800    4.0900    4.1000    4.1100    4.1200    4.1300    4.1400    4.1500
4.1600    4.1700    4.1800    4.1900    4.2000    4.2100    4.2200    4.2300
4.2400    4.2500    4.2600    4.2700    4.2800    4.2900    4.3000    4.3100
4.3200    4.3300    4.3400    4.3500    4.3600    4.3700    4.3800    4.3900
4.4000    4.4100    4.4200    4.4300    4.4400    4.4500    4.4600    4.4700
4.4800    4.4900    4.5000    4.5100    4.5200    4.5300    4.5400    4.5500
4.5600    4.5700    4.5800    4.5900    4.6000    4.6100    4.6200    4.6300
4.6400    4.6500    4.6600    4.6700    4.6800    4.6900    4.7000    4.7100
4.7200    4.7300    4.7400    4.7500    4.7600    4.7700    4.7800    4.7900
4.8000    4.8100    4.8200    4.8300    4.8400    4.8500    4.8600    4.8700
4.8800    4.8900    4.9000    4.9100    4.9200    4.9300    4.9400    4.9500
4.9600    4.9700    4.9800    4.9900    5.0000    5.0100    5.0200    5.0300
5.0400    5.0500    5.0600    5.0700    5.0800    5.0900    5.1000    5.1100
5.1200    5.1300    5.1400    5.1500    5.1600    5.1700    5.1800    5.1900
5.2000    5.2100    5.2200    5.2300    5.2400    5.2500    5.2600    5.2700
5.2800    5.2900    5.3000    5.3100    5.3200    5.3300    5.3400    5.3500
5.3600    5.3700    5.3800    5.3900    5.4000    5.4100    5.4200    5.4300
5.4400    5.4500    5.4600    5.4700    5.4800    5.4900    5.5000    5.5100
5.5200    5.5300    5.5400    5.5500    5.5600    5.5700    5.5800    5.5900
5.6000    5.6100    5.6200    5.6300    5.6400    5.6500    5.6600    5.6700
5.6800    5.6900    5.7000    5.7100    5.7200    5.7300    5.7400    5.7500
5.7600    5.7700    5.7800    5.7900    5.8000    5.8100    5.8200    5.8300
5.8400    5.8500    5.8600    5.8700    5.8800    5.8900    5.9000    5.9100
5.9200    5.9300    5.9400    5.9500    5.9600    5.9700    5.9800    5.9900
6.0000    6.0100    6.0200    6.0300    6.0400    6.0500    6.0600    6.0700
6.0800    6.0900    6.1000    6.1100    6.1200    6.1300    6.1400    6.1500
6.1600    6.1700    6.1800    6.1900    6.2000    6.2100    6.2200    6.2300
6.2400    6.2500    6.2600    6.2700    6.2800    6.2900    6.3000    6.3100
6.3200    6.3300    6.3400    6.3500    6.3600    6.3700    6.3800    6.3900
6.4000    6.4100    6.4200    6.4300    6.4400    6.4500    6.4600    6.4700
6.4800    6.4900    6.5000    6.5100    6.5200    6.5300    6.5400    6.5500
6.5600    6.5700    6.5800    6.5900    6.6000    6.6100    6.6200    6.6300
6.6400    6.6500    6.6600    6.6700    6.6800    6.6900    6.7000    6.7100
6.7200    6.7300    6.7400    6.7500    6.7600    6.7700    6.7800    6.7900
6.8000    6.8100    6.8200    6.8300    6.8400    6.8500    6.8600    6.8700
6.8800    6.8900    6.9000    6.9100    6.9200    6.9300    6.9400    6.9500
6.9600    6.9700    6.9800    6.9900    7.0000    7.0100    7.0200    7.0300
7.0400    7.0500    7.0600    7.0700    7.0800    7.0900    7.1000    7.1100
7.1200    7.1300    7.1400    7.1500    7.1600    7.1700    7.1800    7.1900
7.2000    7.2100    7.2200    7.2300    7.2400    7.2500    7.2600    7.2700
7.2800    7.2900    7.3000    7.3100    7.3200    7.3300    7.3400    7.3500
7.3600    7.3700    7.3800    7.3900    7.4000    7.4100    7.4200    7.4300
7.4400    7.4500    7.4600    7.4700    7.4800    7.4900
</PP_R>
<PP_RAB type="real"  size=" 750" columns="8">
0.0100    0.0100    0.0100    0.0100    0.0100    0.0100    0.0100    0.0100
0.0100    0.0100    0.0100    0.0100    0.0100    0.0100    0.0100    0.0100
0.0100    0.0100    0.0100    0.0100    0.0100    0.0100    0.0100    0.0100
0.0100    0.0100    0.0100    0.0100    0.0100    0.0100    0.0100    0.0100
0.0100    0.0100    0.0100    0.0100    0.0100    0.0100    0.0100    0.0100
0.0100    0.0100    0.0100    0.0100    0.0100    0.0100    0.0100    0.0100
0.0100    0.0100    0.0100    0.0100    0.0100    0.0100    0.0100    0.0100
0.0100    0.0100    0.0100    0.0100    0.0100    0.0100    0.0100    0.0100
0.0100    0.0100    0.0100    0.0100    0.0100    0.0100    0.0100    0.0100
0.0100    0.0100    0.0100    0.0100    0.0100    0.0100    0.0100    0.0100
0.0100    0.0100    0.0100    0.0100    0.0100    0.0100    0.0100    0.0100
0.0100    0.0100    0.0100    0.0100    0.0100    0.0100    0.0100    0.0100
0.0100    0.0100    0.0100    0.0100    0.0100    0.0100    0.0100    0.0100
0.0100    0.0100    0.0100    0.0100    0.0100    0.0100    0.0100    0.0100
0.0100    0.0100    0.0100    0.0100    0.0100    0.0100    0.0100    0.0100
0.0100    0.0100    0.0100    0.0100    0.0100    0.0100    0.0100    0.0100
0.0100    0.0100    0.0100    0.0100    0.0100    0.0100    0.0100    0.0100
0.0100    0.0100    0.0100    0.0100    0.0100    0.0100    0.0100    0.0100
0.0100    0.0100    0.0100    0.0100    0.0100    0.0100    0.0100    0.0100
0.0100    0.0100    0.0100    0.0100    0.0100    0.0100    0.0100    0.0100
0.0100    0.0100    0.0100    0.0100    0.0100    0.0100    0.0100    0.0100
0.0100    0.0100    0.0100    0.0100    0.0100    0.0100    0.0100    0.0100
0.0100    0.0100    0.0100    0.0100    0.0100    0.0100    0.0100    0.0100
0.0100    0.0100    0.0100    0.0100    0.0100    0.0100    0.0100    0.0100
0.0100    0.0100    0.0100    0.0100    0.0100    0.0100    0.0100    0.0100
0.0100    0.0100    0.0100    0.0100    0.0100    0.0100    0.0100    0.0100
0.0100    0.0100    0.0100    0.0100    0.0100    0.0100    0.0100    0.0100
0.0100    0.0100    0.0100    0.0100    0.0100    0.0100    0.0100    0.0100
0.0100    0.0100    0.0100    0.0100    0.0100    0.0100    0.0100    0.0100
0.0100    0.0100    0.0100    0.0100    0.0100    0.0100    0.0100    0.0100
0.0100    0.0100    0.0100    0.0100    0.0100    0.0100    0.0100    0.0100
0.0100    0.0100    0.0100    0.0100    0.0100    0.0100    0.0100    0.0100
0.0100    0.0100    0.0100    0.0100    0.0100    0.0100    0.0100    0.0100
0.0100    0.0100    0.0100    0.0100    0.0100    0.0100    0.0100    0.0100
0.0100    0.0100    0.0100    0.0100    0.0100    0.0100    0.0100    0.0100
0.0100    0.0100    0.0100    0.0100    0.0100    0.0100    0.0100    0.0100
0.0100    0.0100    0.0100    0.0100    0.0100    0.0100    0.0100    0.0100
0.0100    0.0100    0.0100    0.0100    0.0100    0.0100    0.0100    0.0100
0.0100    0.0100    0.0100    0.0100    0.0100    0.0100    0.0100    0.0100
0.0100    0.0100    0.0100    0.0100    0.0100    0.0100    0.0100    0.0100
0.0100    0.0100    0.0100    0.0100    0.0100    0.0100    0.0100    0.0100
0.0100    0.0100    0.0100    0.0100    0.0100    0.0100    0.0100    0.0100
0.0100    0.0100    0.0100    0.0100    0.0100    0.0100    0.0100    0.0100
0.0100    0.0100    0.0100    0.0100    0.0100    0.0100    0.0100    0.0100
0.0100    0.0100    0.0100    0.0100    0.0100    0.0100    0.0100    0.0100
0.0100    0.0100    0.0100    0.0100    0.0100    0.0100    0.0100    0.0100
0.0100    0.0100    0.0100    0.0100    0.0100    0.0100    0.0100    0.0100
0.0100    0.0100    0.0100    0.0100    0.0100    0.0100    0.0100    0.0100
0.0100    0.0100    0.0100    0.0100    0.0100    0.0100    0.0100    0.0100
0.0100    0.0100    0.0100    0.0100    0.0100    0.0100    0.0100    0.0100
0.0100    0.0100    0.0100    0.0100    0.0100    0.0100    0.0100    0.0100
0.0100    0.0100    0.0100    0.0100    0.0100    0.0100    0.0100    0.0100
0.0100    0.0100    0.0100    0.0100    0.0100    0.0100    0.0100    0.0100
0.0100    0.0100    0.0100    0.0100    0.0100    0.0100    0.0100    0.0100
0.0100    0.0100    0.0100    0.0100    0.0100    0.0100    0.0100    0.0100
0.0100    0.0100    0.0100    0.0100    0.0100    0.0100    0.0100    0.0100
0.0100    0.0100    0.0100    0.0100    0.0100    0.0100    0.0100    0.0100
0.0100    0.0100    0.0100    0.0100    0.0100    0.0100    0.0100    0.0100
0.0100    0.0100    0.0100    0.0100    0.0100    0.0100    0.0100    0.0100
0.0100    0.0100    0.0100    0.0100    0.0100    0.0100    0.0100    0.0100
0.0100    0.0100    0.0100    0.0100    0.0100    0.0100    0.0100    0.0100
0.0100    0.0100    0.0100    0.0100    0.0100    0.0100    0.0100    0.0100
0.0100    0.0100    0.0100    0.0100    0.0100    0.0100    0.0100    0.0100
0.0100    0.0100    0.0100    0.0100    0.0100    0.0100    0.0100    0.0100
0.0100    0.0100    0.0100    0.0100    0.0100    0.0100    0.0100    0.0100
0.0100    0.0100    0.0100    0.0100    0.0100    0.0100    0.0100    0.0100
0.0100    0.0100    0.0100    0.0100    0.0100    0.0100    0.0100    0.0100
0.0100    0.0100    0.0100    0.0100    0.0100    0.0100    0.0100    0.0100
0.0100    0.0100    0.0100    0.0100    0.0100    0.0100    0.0100    0.0100
0.0100    0.0100    0.0100    0.0100    0.0100    0.0100    0.0100    0.0100
0.0100    0.0100    0.0100    0.0100    0.0100    0.0100    0.0100    0.0100
0.0100    0.0100    0.0100    0.0100    0.0100    0.0100    0.0100    0.0100
0.0100    0.0100    0.0100    0.0100    0.0100    0.0100    0.0100    0.0100
0.0100    0.0100    0.0100    0.0100    0.0100    0.0100    0.0100    0.0100
0.0100    0.0100    0.0100    0.0100    0.0100    0.0100    0.0100    0.0100
0.0100    0.0100    0.0100    0.0100    0.0100    0.0100    0.0100    0.0100
0.0100    0.0100    0.0100    0.0100    0.0100    0.0100    0.0100    0.0100
0.0100    0.0100    0.0100    0.0100    0.0100    0.0100    0.0100    0.0100
0.0100    0.0100    0.0100    0.0100    0.0100    0.0100    0.0100    0.0100
0.0100    0.0100    0.0100    0.0100    0.0100    0.0100    0.0100    0.0100
0.0100    0.0100    0.0100    0.0100    0.0100    0.0100    0.0100    0.0100
0.0100    0.0100    0.0100    0.0100    0.0100    0.0100    0.0100    0.0100
0.0100    0.0100    0.0100    0.0100    0.0100    0.0100    0.0100    0.0100
0.0100    0.0100    0.0100    0.0100    0.0100    0.0100    0.0100    0.0100
0.0100    0.0100    0.0100    0.0100    0.0100    0.0100    0.0100    0.0100
0.0100    0.0100    0.0100    0.0100    0.0100    0.0100    0.0100    0.0100
0.0100    0.0100    0.0100    0.0100    0.0100    0.0100    0.0100    0.0100
0.0100    0.0100    0.0100    0.0100    0.0100    0.0100    0.0100    0.0100
0.0100    0.0100    0.0100    0.0100    0.0100    0.0100    0.0100    0.0100
0.0100    0.0100    0.0100    0.0100    0.0100    0.0100    0.0100    0.0100
0.0100    0.0100    0.0100    0.0100    0.0100    0.0100    0.0100    0.0100
0.0100    0.0100    0.0100    0.0100    0.0100    0.0100    0.0100    0.0100
0.0100    0.0100    0.0100    0.0100    0.0100    0.0100    0.0100    0.0100
0.0100    0.0100    0.0100    0.0100    0.0100    0.0100
</PP_RAB>
</PP_MESH>
<PP_LOCAL type="real"  size=" 750" columns="4">
-2.6980992691E+01   -2.6978968388E+01   -2.6972902822E+01   -2.6962817898E+01
-2.6948749380E+01   -2.6930745852E+01   -2.6908867348E+01   -2.6883183720E+01
-2.6853772854E+01   -2.6820718804E+01   -2.6784109936E+01   -2.6744037150E+01
-2.6700592238E+01   -2.6653866422E+01   -2.6603949098E+01   -2.6550926795E+01
-2.6494882355E+01   -2.6435894323E+01   -2.6374036532E+01   -2.6309377865E+01
-2.6241982164E+01   -2.6171908275E+01   -2.6099210199E+01   -2.6023937328E+01
-2.5946134751E+01   -2.5865843608E+01   -2.5783101480E+01   -2.5697942803E+01
-2.5610399294E+01   -2.5520500376E+01   -2.5428273605E+01   -2.5333745085E+01
-2.5236939865E+01   -2.5137882323E+01   -2.5036596529E+01   -2.4933106578E+01
-2.4827436909E+01   -2.4719612592E+01   -2.4609659594E+01   -2.4497605011E+01
-2.4383477287E+01   -2.4267306394E+01   -2.4149123994E+01   -2.4028963581E+01
-2.3906860584E+01   -2.3782852464E+01   -2.3656978777E+01   -2.3529281225E+01
-2.3399803672E+01   -2.3268592162E+01   -2.3135694900E+01   -2.3001162226E+01
-2.2865046569E+01   -2.2727402394E+01   -2.2588286123E+01   -2.2447756053E+01
-2.2305872265E+01   -2.2162696512E+01   -2.2018292111E+01   -2.1872723822E+01
-2.1726057713E+01   -2.1578361040E+01   -2.1429702099E+01   -2.1280150092E+01
-2.1129774985E+01   -2.0978647363E+01   -2.0826838287E+01   -2.0674419154E+01
-2.0521461552E+01   -2.0368037123E+01   -2.0214217426E+01   -2.0060073805E+01
-1.9905677257E+01   -1.9751098312E+01   -1.9596406910E+01   -1.9441672287E+01
-1.9286962867E+01   -1.9132346159E+01   -1.8977888660E+01   -1.8823655764E+01
-1.8669711677E+01   -1.8516119342E+01   -1.8362940360E+01   -1.8210234935E+01
-1.8058061803E+01   -1.7906478187E+01   -1.7755539746E+01   -1.7605300534E+01
-1.7455812961E+01   -1.7307127764E+01   -1.7159293981E+01   -1.7012358926E+01
-1.6866368172E+01   -1.6721365538E+01   -1.6577393080E+01   -1.6434491079E+01
-1.6292698041E+01   -1.6152050693E+01   -1.6012583984E+01   -1.5874331087E+01
-1.5737323402E+01   -1.5601590562E+01   -1.5467160437E+01   -1.5334059141E+01
-1.5202311038E+01   -1.5071938751E+01   -1.4942963161E+01   -1.4815403422E+01
-1.4689276958E+01   -1.4564599469E+01   -1.4441384937E+01   -1.4319645621E+01
-1.4199392063E+01   -1.4080633083E+01   -1.3963375774E+01   -1.3847625501E+01
-1.3733385887E+01   -1.3620658813E+01   -1.3509444395E+01   -1.3399740982E+01
-1.3291545132E+01   -1.3184851598E+01   -1.3079653306E+01   -1.2975941336E+01
-1.2873704893E+01   -1.2772931287E+01   -1.2673605899E+01   -1.2575712152E+01
-1.2479231484E+01   -1.2384143295E+01   -1.2290424997E+01   -1.2198051745E+01
-1.2106996686E+01   -1.2017232189E+01   -1.1928730915E+01   -1.1841466686E+01
-1.1755414181E+01   -1.1670548910E+01   -1.1586847194E+01   -1.1504286135E+01
-1.1422843570E+01   -1.1342498045E+01   -1.1263228779E+01   -1.1185015628E+01
-1.1107839060E+01   -1.1031680119E+01   -1.0956520400E+01   -1.0882342017E+01
-1.0809127580E+01   -1.0736860165E+01   -1.0665523290E+01   -1.0595100889E+01
-1.0525577293E+01   -1.0456937203E+01   -1.0389165669E+01   -1.0322248071E+01
-1.0256170100E+01   -1.0190917736E+01   -1.0126477232E+01   -1.0062835098E+01
-9.9999780821E+00   -9.9378931575E+00   -9.8765675067E+00   -9.8159885080E+00
-9.7561437227E+00   -9.6970208828E+00   -9.6386078801E+00   -9.5808927552E+00
-9.5238636870E+00   -9.4675089850E+00   -9.4118170772E+00   -9.3567765185E+00
-9.3023760122E+00   -9.2486044372E+00   -9.1954509232E+00   -9.1429048854E+00
-9.0909559779E+00   -9.0395940760E+00   -8.9888092855E+00   -8.9385919339E+00
-8.8889325638E+00   -8.8398219265E+00   -8.7912509767E+00   -8.7432108669E+00
-8.6956929418E+00   -8.6486887333E+00   -8.6021899555E+00   -8.5561884996E+00
-8.5106764293E+00   -8.4656459765E+00   -8.4210895365E+00   -8.3769996639E+00
-8.3333690683E+00   -8.2901906106E+00   -8.2474572988E+00   -8.2051622842E+00
-8.1632988581E+00   -8.1218604480E+00   -8.0808406140E+00   -8.0402330458E+00
-8.0000315592E+00   -7.9602300933E+00   -7.9208227069E+00   -7.8818035761E+00
-7.8431669912E+00   -7.8049073537E+00   -7.7670191740E+00   -7.7294970686E+00
-7.6923357575E+00   -7.6555300616E+00   -7.6190749006E+00   -7.5829652906E+00
-7.5471963415E+00   -7.5117632553E+00   -7.4766613234E+00   -7.4418859250E+00
-7.4074325249E+00   -7.3732966713E+00   -7.3394739943E+00   -7.3059602037E+00
-7.2727510874E+00   -7.2398425094E+00   -7.2072304083E+00   -7.1749107955E+00
-7.1428797538E+00   -7.1111334355E+00   -7.0796680610E+00   -7.0484799172E+00
-7.0175653564E+00   -6.9869207945E+00   -6.9565427097E+00   -6.9264276411E+00
-6.8965721877E+00   -6.8669730066E+00   -6.8376268124E+00   -6.8085303754E+00
-6.7796805205E+00   -6.7510741266E+00   -6.7227081246E+00   -6.6945794972E+00
-6.6666852769E+00   -6.6390225460E+00   -6.6115884346E+00   -6.5843801202E+00
-6.5573948267E+00   -6.5306298230E+00   -6.5040824227E+00   -6.4777499829E+00
-6.4516299031E+00   -6.4257196247E+00   -6.4000166302E+00   -6.3745184419E+00
-6.3492226217E+00   -6.3241267700E+00   -6.2992285248E+00   -6.2745255614E+00
-6.2500155912E+00   -6.2256963615E+00   -6.2015656542E+00   -6.1776212857E+00
-6.1538611059E+00   -6.1302829977E+00   -6.1068848762E+00   -6.0836646883E+00
-6.0606204121E+00   -6.0377500561E+00   -6.0150516587E+00   -5.9925232878E+00
-5.9701630401E+00   -5.9479690407E+00   -5.9259394422E+00   -5.9040724247E+00
-5.8823661951E+00   -5.8608189864E+00   -5.8394290575E+00   -5.8181946926E+00
-5.7971142008E+00   -5.7761859156E+00   -5.7554081944E+00   -5.7347794182E+00
-5.7142979912E+00   -5.6939623403E+00   -5.6737709146E+00   -5.6537221852E+00
-5.6338146448E+00   -5.6140468072E+00   -5.5944172069E+00   -5.5749243988E+00
-5.5555669582E+00   -5.5363434798E+00   -5.5172525777E+00   -5.4982928852E+00
-5.4794630542E+00   -5.4607617551E+00   -5.4421876763E+00   -5.4237395240E+00
-5.4054160220E+00   -5.3872159111E+00   -5.3691379492E+00   -5.3511809106E+00
-5.3333435861E+00   -5.3156247825E+00   -5.2980233225E+00   -5.2805380443E+00
-5.2631678013E+00   -5.2459114620E+00   -5.2287679096E+00   -5.2117360422E+00
-5.1948147716E+00   -5.1780030244E+00   -5.1612997404E+00   -5.1447038735E+00
-5.1282143907E+00   -5.1118302725E+00   -5.0955505120E+00   -5.0793741156E+00
-5.0633001018E+00   -5.0473275016E+00   -5.0314553585E+00   -5.0156827276E+00
-5.0000086760E+00   -4.9844322823E+00   -4.9689526368E+00   -4.9535688409E+00
-4.9382800070E+00   -4.9230852585E+00   -4.9079837296E+00   -4.8929745652E+00
-4.8780569204E+00   -4.8632299606E+00   -4.8484928615E+00   -4.8338448086E+00
-4.8192849973E+00   -4.8048126325E+00   -4.7904269289E+00   -4.7761271104E+00
-4.7619124101E+00   -4.7477820703E+00   -4.7337353422E+00   -4.7197714860E+00
-4.7058897703E+00   -4.6920894726E+00   -4.6783698786E+00   -4.6647302824E+00
-4.6511699865E+00   -4.6376883012E+00   -4.6242845450E+00   -4.6109580440E+00
-4.5977081324E+00   -4.5845341517E+00   -4.5714354511E+00   -4.5584113872E+00
-4.5454613238E+00   -4.5325846321E+00   -4.5197806903E+00   -4.5070488836E+00
-4.4943886040E+00   -4.4817992506E+00   -4.4692802290E+00   -4.4568309514E+00
-4.4444508366E+00   -4.4321393099E+00   -4.4198958028E+00   -4.4077197533E+00
-4.3956106053E+00   -4.3835678089E+00   -4.3715908204E+00   -4.3596791017E+00
-4.3478321208E+00   -4.3360493513E+00   -4.3243302726E+00   -4.3126743697E+00
-4.3010811331E+00   -4.2895500588E+00   -4.2780806481E+00   -4.2666724077E+00
-4.2553248497E+00   -4.2440374910E+00   -4.2328098539E+00   -4.2216414657E+00
-4.2105318586E+00   -4.1994805698E+00   -4.1884871413E+00   -4.1775511199E+00
-4.1666720570E+00   -4.1558495089E+00   -4.1450830362E+00   -4.1343722044E+00
-4.1237165832E+00   -4.1131157468E+00   -4.1025692737E+00   -4.0920767470E+00
-4.0816377536E+00   -4.0712518850E+00   -4.0609187367E+00   -4.0506379082E+00
-4.0404090032E+00   -4.0302316293E+00   -4.0201053981E+00   -4.0100299251E+00
-4.0000048295E+00   -3.9900297345E+00   -3.9801042670E+00   -3.9702280574E+00
-3.9604007401E+00   -3.9506219529E+00   -3.9408913371E+00   -3.9312085376E+00
-3.9215732030E+00   -3.9119849851E+00   -3.9024435390E+00   -3.8929485234E+00
-3.8834996002E+00   -3.8740964346E+00   -3.8647386950E+00   -3.8554260530E+00
-3.8461581835E+00   -3.8369347642E+00   -3.8277554762E+00   -3.8186200035E+00
-3.8095280332E+00   -3.8004792552E+00   -3.7914733624E+00   -3.7825100509E+00
-3.7735890191E+00   -3.7647099688E+00   -3.7558726042E+00   -3.7470766325E+00
-3.7383217636E+00   -3.7296077099E+00   -3.7209341868E+00   -3.7123009122E+00
-3.7037076065E+00   -3.6951539928E+00   -3.6866397968E+00   -3.6781647466E+00
-3.6697285728E+00   -3.6613310086E+00   -3.6529717894E+00   -3.6446506534E+00
-3.6363673408E+00   -3.6281215942E+00   -3.6199131589E+00   -3.6117417819E+00
-3.6036072131E+00   -3.5955092042E+00   -3.5874475093E+00   -3.5794218846E+00
-3.5714320887E+00   -3.5634778822E+00   -3.5555590278E+00   -3.5476752902E+00
-3.5398264366E+00   -3.5320122358E+00   -3.5242324588E+00   -3.5164868787E+00
-3.5087752705E+00   -3.5010974112E+00   -3.4934530798E+00   -3.4858420570E+00
-3.4782641257E+00   -3.4707190705E+00   -3.4632066779E+00   -3.4557267363E+00
-3.4482790359E+00   -3.4408633687E+00   -3.4334795284E+00   -3.4261273107E+00
-3.4188065127E+00   -3.4115169335E+00   -3.4042583739E+00   -3.3970306362E+00
-3.3898335246E+00   -3.3826668447E+00   -3.3755304041E+00   -3.3684240118E+00
-3.3613474782E+00   -3.3543006157E+00   -3.3472832381E+00   -3.3402951606E+00
-3.3333362001E+00   -3.3264061751E+00   -3.3195049054E+00   -3.3126322125E+00
-3.3057879191E+00   -3.2989718497E+00   -3.2921838300E+00   -3.2854236872E+00
-3.2786912500E+00   -3.2719863484E+00   -3.2653088137E+00   -3.2586584788E+00
-3.2520351779E+00   -3.2454387464E+00   -3.2388690211E+00   -3.2323258402E+00
-3.2258090431E+00   -3.2193184706E+00   -3.2128539647E+00   -3.2064153687E+00
-3.2000025272E+00   -3.1936152858E+00   -3.1872534916E+00   -3.1809169929E+00
-3.1746056391E+00   -3.1683192808E+00   -3.1620577698E+00   -3.1558209590E+00
-3.1496087027E+00   -3.1434208561E+00   -3.1372572755E+00   -3.1311178186E+00
-3.1250023441E+00   -3.1189107115E+00   -3.1128427818E+00   -3.1067984170E+00
-3.1007774800E+00   -3.0947798348E+00   -3.0888053466E+00   -3.0828538815E+00
-3.0769253067E+00   -3.0710194904E+00   -3.0651363017E+00   -3.0592756110E+00
-3.0534372893E+00   -3.0476212089E+00   -3.0418272429E+00   -3.0360552654E+00
-3.0303051515E+00   -3.0245767773E+00   -3.0188700195E+00   -3.0131847562E+00
-3.0075208660E+00   -3.0018782288E+00   -2.9962567251E+00   -2.9906562364E+00
-2.9850766451E+00   -2.9795178343E+00   -2.9739796884E+00   -2.9684620922E+00
-2.9629649316E+00   -2.9574880932E+00   -2.9520314646E+00   -2.9465949341E+00
-2.9411783909E+00   -2.9357817249E+00   -2.9304048270E+00   -2.9250475887E+00
-2.9197099024E+00   -2.9143916612E+00   -2.9090927591E+00   -2.9038130909E+00
-2.8985525519E+00   -2.8933110383E+00   -2.8880884473E+00   -2.8828846764E+00
-2.8776996242E+00   -2.8725331897E+00   -2.8673852730E+00   -2.8622557746E+00
-2.8571445959E+00   -2.8520516389E+00   -2.8469768063E+00   -2.8419200016E+00
-2.8368811288E+00   -2.8318600928E+00   -2.8268567990E+00   -2.8218711535E+00
-2.8169030631E+00   -2.8119524353E+00   -2.8070191782E+00   -2.8021032004E+00
-2.7972044114E+00   -2.7923227211E+00   -2.7874580403E+00   -2.7826102801E+00
-2.7777793525E+00   -2.7729651698E+00   -2.7681676453E+00   -2.7633866925E+00
-2.7586222258E+00   -2.7538741601E+00   -2.7491424107E+00   -2.7444268938E+00
-2.7397275260E+00   -2.7350442244E+00   -2.7303769068E+00   -2.7257254915E+00
-2.7210898973E+00   -2.7164700438E+00   -2.7118658507E+00   -2.7072772388E+00
-2.7027041289E+00   -2.6981464427E+00   -2.6936041023E+00   -2.6890770302E+00
-2.6845651497E+00   -2.6800683844E+00   -2.6755866585E+00   -2.6711198966E+00
-2.6666680240E+00   -2.6622309662E+00   -2.6578086496E+00   -2.6534010007E+00
-2.6490079466E+00   -2.6446294151E+00   -2.6402653342E+00   -2.6359156326E+00
-2.6315802391E+00   -2.6272590834E+00   -2.6229520955E+00   -2.6186592058E+00
-2.6143803451E+00   -2.6101154449E+00   -2.6058644368E+00   -2.6016272532E+00
-2.5974038267E+00   -2.5931940905E+00   -2.5889979780E+00   -2.5848154232E+00
-2.5806463606E+00   -2.5764907249E+00   -2.5723484514E+00   -2.5682194758E+00
-2.5641037340E+00   -2.5600011627E+00   -2.5559116987E+00   -2.5518352792E+00
-2.5477718420E+00   -2.5437213251E+00   -2.5396836670E+00   -2.5356588065E+00
-2.5316466830E+00   -2.5276472361E+00   -2.5236604057E+00   -2.5196861323E+00
-2.5157243566E+00   -2.5117750198E+00   -2.5078380634E+00   -2.5039134292E+00
-2.5000010596E+00   -2.4961008970E+00   -2.4922128845E+00   -2.4883369654E+00
-2.4844730833E+00   -2.4806211823E+00   -2.4767812066E+00   -2.4729531011E+00
-2.4691368108E+00   -2.4653322810E+00   -2.4615394574E+00   -2.4577582862E+00
-2.4539887137E+00   -2.4502306865E+00   -2.4464841519E+00   -2.4427490571E+00
-2.4390253497E+00   -2.4353129779E+00   -2.4316118899E+00   -2.4279220344E+00
-2.4242433602E+00   -2.4205758167E+00   -2.4169193534E+00   -2.4132739202E+00
-2.4096394672E+00   -2.4060159450E+00   -2.4024033041E+00   -2.3988014959E+00
-2.3952104714E+00   -2.3916301826E+00   -2.3880605811E+00   -2.3845016193E+00
-2.3809532497E+00   -2.3774154250E+00   -2.3738880984E+00   -2.3703712231E+00
-2.3668647527E+00   -2.3633686413E+00   -2.3598828428E+00   -2.3564073119E+00
-2.3529420031E+00   -2.3494868714E+00   -2.3460418721E+00   -2.3426069607E+00