<?xml version="1.0" encoding="UTF-8" ?>
<psml version="1.1" energy_unit="hartree" length_unit="bohr"
 uuid="297821e0-be41-11e7-6802-e1ff7dfff095"
 xmlns="http://esl.cecam.org/PSML/ns/1.1">
<provenance creator="ONCVPSP-3.3.0+psml-3.3.0-73 (scalar-relativistic)"
 date="2017-10-31">
<annotation action="semilocal-pseudopotential-generation"
 action-cont="projectors-generation" />
<input-file name="oncvpsp-input">
<![CDATA[# atsym z nc nv iexc psfile
C 6 1 2 4 upf
# n l f
1 0 2.0
2 0 2.0
2 1 2.0
# lmax
1
# l rc ep ncon nbas qcut
0 1.2 0.0 4 7 9.0
1 1.25 0.0 4 8 9.4
# lloc lpopt rc5 dvloc0
4 5 1.2 0.0
# l nproj debl
0 2 2.0
1 2 1.5
# icmod fcfact
3 4 1.55
# epsh1 epsh2 depsh
-12.0 12.0 0.02
# rlmax drl
6.0 0.01
 0
]]>
</input-file>
</provenance>
<pseudo-atom-spec atomic-label="C" atomic-number="6" z-pseudo="4"
 flavor="Hamann&apos;s oncvpsp" relativity="scalar" spin-dft="no"
 core-corrections="yes">
<annotation pseudo-energy="-5.38893868603" />
<exchange-correlation>
<annotation oncvpsp-xc-code="4" oncvpsp-xc-type="GGA -- Perdew-Burke-Ernzerhof" />
<libxc-info number-of-functionals="2">
<functional name="Perdew, Burke &amp; Ernzerhof (GGA)" type="exchange" id="101" />
<functional name="Perdew, Burke &amp; Ernzerhof (GGA)" type="correlation"
 id="130" />
</libxc-info>
</exchange-correlation>
<valence-configuration total-valence-charge="4">
<shell n="2" l="s" occupation="2" />
<shell n="2" l="p" occupation="2" />
</valence-configuration>
</pseudo-atom-spec>
<grid npts="457">
<annotation type="sampled from oncvpsp log grid"
 recipe="r(i:1..N) = r1*exp(a*(i-1)) + r=0; resampled"
 recipe-cont="r1: scale; a: step" scale="0.833333333333E-04"
 step="0.119285708653E-01" delta="0.500000000000E-02" rmax="44.1860389071" />
<grid-data>
  0.000000000000E+00  5.045625992470E-03  1.007824195345E-02  1.511897001109E-02
  2.013049738999E-02  2.525132916864E-02  3.056134357623E-02  3.568774490113E-02
  4.069159781681E-02  4.584688868969E-02  5.104279894154E-02  5.615372632002E-02
  6.177641205049E-02  6.715622392913E-02  7.300453786039E-02  7.842110024149E-02
  8.423954377804E-02  8.941668576200E-02  9.491200134852E-02  1.007450446548E-01
  1.069365715431E-01  1.121626615380E-01  1.176441554255E-01  1.233935350321E-01
  1.294238921827E-01  1.357489585120E-01  1.423831367325E-01  1.475706852080E-01
  1.529472354136E-01  1.585196733870E-01  1.642951360498E-01  1.702810203484E-01
  1.764849927273E-01  1.829149989485E-01  1.895792742673E-01  1.964863539803E-01
  2.036450843570E-01  2.110646339690E-01  2.161605784915E-01  2.213795594986E-01
  2.267245475832E-01  2.321985850600E-01  2.378047876977E-01  2.435463464919E-01
  2.494265294816E-01  2.554486836094E-01  2.616162366264E-01  2.679326990435E-01
  2.744016661293E-01  2.810268199563E-01  2.878119314973E-01  2.947608627714E-01
  3.018775690421E-01  3.091661010691E-01  3.166306074133E-01  3.242753367987E-01
  3.321046405303E-01  3.401229749713E-01  3.483349040790E-01  3.567451020031E-01
  3.653583557459E-01  3.741795678870E-01  3.832137593741E-01  3.924660723804E-01
  4.019417732319E-01  4.116462554048E-01  4.215850425953E-01  4.266440631065E-01
  4.317637918638E-01  4.369449573661E-01  4.421882968545E-01  4.474945564168E-01
  4.528644910938E-01  4.582988649869E-01  4.637984513667E-01  4.693640327831E-01
  4.749964011765E-01  4.806963579907E-01  4.864647142866E-01  4.923022908580E-01
  4.982099183483E-01  5.041884373685E-01  5.102386986169E-01  5.163615630003E-01
  5.225579017563E-01  5.288285965774E-01  5.351745397363E-01  5.415966342131E-01
  5.480957938237E-01  5.546729433496E-01  5.613290186698E-01  5.680649668938E-01
  5.748817464965E-01  5.817803274545E-01  5.887616913839E-01  5.958268316806E-01
  6.029767536607E-01  6.102124747047E-01  6.175350244011E-01  6.249454446939E-01
  6.324447900302E-01  6.400341275106E-01  6.477145370407E-01  6.554871114852E-01
  6.633529568230E-01  6.713131923049E-01  6.793689506126E-01  6.875213780199E-01
  6.957716345562E-01  7.041208941708E-01  7.125703449009E-01  7.211211890397E-01
  7.297746433082E-01  7.385319390279E-01  7.473943222962E-01  7.563630541638E-01
  7.654394108137E-01  7.746246837435E-01  7.839201799484E-01  7.933272221078E-01
  8.028471487731E-01  8.124813145584E-01  8.222310903331E-01  8.320978634171E-01
  8.420830377781E-01  8.521880342314E-01  8.624142906422E-01  8.727632621299E-01
  8.832364212755E-01  8.938352583308E-01  9.045612814307E-01  9.154160168079E-01
  9.264010090096E-01  9.375178211177E-01  9.487680349711E-01  9.601532513908E-01
  9.716750904075E-01  9.833351914924E-01  9.951352137903E-01  1.007076836356E+00
  1.019161758392E+00  1.031391699493E+00  1.043768399887E+00  1.056293620685E+00
  1.068969144133E+00  1.081796773863E+00  1.094778335149E+00  1.107915675171E+00
  1.121210663273E+00  1.134665191233E+00  1.148281173527E+00  1.162060547610E+00
  1.176005274181E+00  1.190117337471E+00  1.204398745521E+00  1.218851530467E+00
  1.233477748833E+00  1.248279481819E+00  1.263258835601E+00  1.278417941628E+00
  1.293758956927E+00  1.309284064410E+00  1.324995473183E+00  1.340895418862E+00
  1.356986163888E+00  1.373269997855E+00  1.389749237829E+00  1.406426228683E+00
  1.423303343427E+00  1.440382983548E+00  1.457667579351E+00  1.475159590303E+00
  1.492861505386E+00  1.510775843451E+00  1.528905153572E+00  1.547252015415E+00
  1.565819039600E+00  1.584608868076E+00  1.603624174492E+00  1.622867664586E+00
  1.642342076561E+00  1.662050181480E+00  1.681994783658E+00  1.702178721062E+00
  1.722604865715E+00  1.743276124103E+00  1.764195437592E+00  1.785365782843E+00
  1.806790172238E+00  1.828471654304E+00  1.850413314156E+00  1.872618273926E+00
  1.895089693213E+00  1.917830769532E+00  1.940844738766E+00  1.964134875631E+00
  1.987704494139E+00  2.011556948068E+00  2.035695631445E+00  2.060123979023E+00
  2.084845466771E+00  2.109863612372E+00  2.135181975721E+00  2.160804159429E+00
  2.186733809342E+00  2.212974615054E+00  2.239530310435E+00  2.266404674160E+00
  2.293601530250E+00  2.321124748613E+00  2.348978245597E+00  2.377165984544E+00
  2.405691976358E+00  2.434560280075E+00  2.463775003436E+00  2.493340303477E+00
  2.523260387118E+00  2.553539511764E+00  2.584181985905E+00  2.615192169736E+00
  2.646574475773E+00  2.678333369482E+00  2.710473369916E+00  2.742999050355E+00
  2.775915038959E+00  2.809226019427E+00  2.842936731660E+00  2.877051972440E+00
  2.911576596109E+00  2.946515515262E+00  2.981873701445E+00  3.017656185863E+00
  3.053868060093E+00  3.090514476814E+00  3.127600650536E+00  3.165131858342E+00
  3.203113440642E+00  3.241550801930E+00  3.280449411553E+00  3.319814804492E+00
  3.359652582146E+00  3.399968413132E+00  3.440768034089E+00  3.482057250498E+00
  3.523841937504E+00  3.566128040754E+00  3.608921577243E+00  3.652228636170E+00
  3.696055379804E+00  3.740408044362E+00  3.785292940894E+00  3.830716456185E+00
  3.876685053659E+00  3.923205274303E+00  3.970283737595E+00  4.017927142446E+00
  4.066142268155E+00  4.114935975373E+00  4.164315207078E+00  4.214286989563E+00
  4.264858433437E+00  4.316036734639E+00  4.367829175454E+00  4.420243125560E+00
  4.473286043066E+00  4.526965475583E+00  4.581289061290E+00  4.636264530026E+00
  4.691899704386E+00  4.748202500839E+00  4.805180930849E+00  4.862843102019E+00
  4.921197219243E+00  4.980251585874E+00  5.040014604905E+00  5.100494780163E+00
  5.161700717525E+00  5.223641126136E+00  5.286324819649E+00  5.349760717485E+00
  5.413957846095E+00  5.478925340248E+00  5.544672444331E+00  5.611208513663E+00
  5.678543015827E+00  5.746685532017E+00  5.815645758401E+00  5.885433507502E+00
  5.956058709592E+00  6.027531414107E+00  6.099861791076E+00  6.173060132569E+00
  6.247136854160E+00  6.322102496410E+00  6.397967726367E+00  6.474743339083E+00
  6.552440259152E+00  6.631069542262E+00  6.710642376769E+00  6.791170085290E+00
  6.872664126314E+00  6.955136095830E+00  7.038597728980E+00  7.123060901727E+00
  7.208537632548E+00  7.295040084139E+00  7.382580565148E+00  7.471171531930E+00
  7.560825590313E+00  7.651555497397E+00  7.743374163366E+00  7.836294653326E+00
  7.930330189166E+00  8.025494151436E+00  8.121800081253E+00  8.219261682228E+00
  8.317892822415E+00  8.417707536284E+00  8.518720026720E+00  8.620944667040E+00
  8.724396003045E+00  8.829088755081E+00  8.935037820142E+00  9.042258273984E+00
  9.150765373272E+00  9.260574557751E+00  9.371701452444E+00  9.484161869873E+00
  9.597971812312E+00  9.713147474059E+00  9.829705243748E+00  9.947661706673E+00
  1.006703364715E+01  1.018783805092E+01  1.031009210753E+01  1.043381321282E+01
  1.055901897137E+01  1.068572719903E+01  1.081395592542E+01  1.094372339652E+01
  1.107504807728E+01  1.120794865421E+01  1.134244403806E+01  1.147855336652E+01
  1.161629600692E+01  1.175569155900E+01  1.189675985771E+01  1.203952097600E+01
  1.218399522771E+01  1.233020317044E+01  1.247816560849E+01  1.262790359579E+01
  1.277943843894E+01  1.293279170021E+01  1.308798520061E+01  1.324504102302E+01
  1.340398151529E+01  1.356482929348E+01  1.372760724500E+01  1.389233853194E+01
  1.405904659432E+01  1.422775515345E+01  1.439848821530E+01  1.457127007388E+01
  1.474612531477E+01  1.492307881854E+01  1.510215576436E+01  1.528338163354E+01
  1.546678221314E+01  1.565238359970E+01  1.584021220289E+01  1.603029474933E+01
  1.622265828632E+01  1.641733018576E+01  1.661433814799E+01  1.681371020576E+01
  1.701547472823E+01  1.721966042497E+01  1.742629635007E+01  1.763541190627E+01
  1.784703684914E+01  1.806120129133E+01  1.827793570683E+01  1.849727093531E+01
  1.871923818654E+01  1.894386904477E+01  1.917119547331E+01  1.940124981899E+01
  1.963406481682E+01  1.986967359462E+01  2.010810967776E+01  2.034940699389E+01
  2.059359987782E+01  2.084072307635E+01  2.109081175327E+01  2.134390149431E+01
  2.160002831224E+01  2.185922865198E+01  2.212153939581E+01  2.238699786856E+01
  2.265564184298E+01  2.292750954510E+01  2.320263965964E+01  2.348107133555E+01
  2.376284419158E+01  2.404799832188E+01  2.433657430174E+01  2.462861319336E+01
  2.492415655168E+01  2.522324643030E+01  2.552592538747E+01  2.583223649212E+01
  2.614222333002E+01  2.645593000998E+01  2.677340117010E+01  2.709468198414E+01
  2.741981816795E+01  2.774885598597E+01  2.808184225780E+01  2.841882436489E+01
  2.875985025727E+01  2.910496846036E+01  2.945422808188E+01  2.980767881887E+01
  3.016537096469E+01  3.052735541627E+01  3.089368368126E+01  3.126440788544E+01
  3.163958078006E+01  3.201925574942E+01  3.240348681842E+01  3.279232866024E+01
  3.318583660416E+01  3.358406664341E+01  3.398707544313E+01  3.439492034845E+01
  3.480765939263E+01  3.522535130534E+01  3.564805552101E+01  3.607583218726E+01
  3.650874217351E+01  3.694684707959E+01  3.739020924454E+01  3.783889175548E+01
  3.829295845654E+01  3.875247395802E+01  3.921750364552E+01  3.968811368927E+01
  4.016437105354E+01  4.064634350618E+01  4.113409962825E+01  4.162770882379E+01
  4.212724132968E+01  4.263276822563E+01  4.314436144434E+01  4.366209378167E+01
  4.418603890705E+01
</grid-data>
</grid>
<valence-charge total-charge="4" is-unscreening-charge="yes"
 rescaled-to-z-pseudo="no">
<radfunc>
<data npts="457">
  2.645111564561E-01  2.649749766465E-01  2.663612397366E-01  2.686731702958E-01
  2.718858178178E-01  2.761070509152E-01  2.814819266857E-01  2.876297014995E-01
  2.945333900737E-01  3.025723829659E-01  3.116184722974E-01  3.214326393717E-01
  3.332681592990E-01  3.455993803758E-01  3.601067329447E-01  3.745526339816E-01
  3.911346131567E-01  4.068002933248E-01  4.243507439657E-01  4.439984590808E-01
  4.659760413002E-01  4.854052703321E-01  5.066271528116E-01  5.297902179000E-01
  5.550517331273E-01  5.825774118346E-01  6.125408848464E-01  6.367217759648E-01
  6.624539650406E-01  6.898174738200E-01  7.188933947334E-01  7.497633430240E-01
  7.825087988688E-01  8.172103265028E-01  8.539466568302E-01  8.927936197117E-01
  9.338229121469E-01  9.771006890276E-01  1.007231187706E+00  1.038402782835E+00
  1.070628810741E+00  1.103920307476E+00  1.138285711623E+00  1.173730548332E+00
  1.210257094851E+00  1.247864028115E+00  1.286546055254E+00  1.326293528238E+00
  1.367092044290E+00  1.408922034127E+00  1.451758340578E+00  1.495569790686E+00
  1.540318764916E+00  1.585960767757E+00  1.632444004561E+00  1.679708970169E+00
  1.727688055446E+00  1.776305178523E+00  1.825475448100E+00  1.875104866706E+00
  1.925090082261E+00  1.975318196633E+00  2.025666640085E+00  2.076003120571E+00
  2.126185656682E+00  2.176062702735E+00  2.225473373891E+00  2.249951068164E+00
  2.274247778420E+00  2.298340933943E+00  2.322207463198E+00  2.345823814278E+00
  2.369165977255E+00  2.392209508479E+00  2.414929556801E+00  2.437300891739E+00
  2.459297933567E+00  2.480894785312E+00  2.502065266655E+00  2.522782949678E+00
  2.543021196462E+00  2.562753198467E+00  2.581952017673E+00  2.600590629425E+00
  2.618641966945E+00  2.636078967449E+00  2.652874619823E+00  2.669002013808E+00
  2.684434390638E+00  2.699145195074E+00  2.713108128804E+00  2.726297205134E+00
  2.738686804947E+00  2.750251733875E+00  2.760967280646E+00  2.770809276566E+00
  2.779754156104E+00  2.787779018529E+00  2.794861690565E+00  2.800980790024E+00
  2.806115790347E+00  2.810247086007E+00  2.813356058686E+00  2.815425144129E+00
  2.816437899555E+00  2.816379071478E+00  2.815234663753E+00  2.812992005618E+00
  2.809639819471E+00  2.805168288054E+00  2.799569120672E+00  2.792835618008E+00
  2.784962735027E+00  2.775947141414E+00  2.765787278895E+00  2.754483414742E+00
  2.742037690700E+00  2.728454166506E+00  2.713738857121E+00  2.697899762768E+00
  2.680946890828E+00  2.662892268655E+00  2.643749946366E+00  2.623535988727E+00
  2.602268455293E+00  2.579967368076E+00  2.556654666145E+00  2.532354146706E+00
  2.507091392441E+00  2.480893685090E+00  2.453789905554E+00  2.425810421089E+00
  2.396986960494E+00  2.367352478558E+00  2.336941011381E+00  2.305787524600E+00
  2.273927756881E+00  2.241398061420E+00  2.208235248517E+00  2.174476432535E+00
  2.140158886811E+00  2.105319910127E+00  2.069996708433E+00  2.034226295340E+00
  1.998045414656E+00  1.961490487788E+00  1.924597588263E+00  1.887402444784E+00
  1.849940473313E+00  1.812246837527E+00  1.774356535718E+00  1.736304510842E+00
  1.698125778992E+00  1.659855570148E+00  1.621529473760E+00  1.583183587622E+00
  1.544854685137E+00  1.506580380912E+00  1.468399207715E+00  1.430350456684E+00
  1.392473384852E+00  1.354806077286E+00  1.317385209148E+00  1.280246186320E+00
  1.243423009929E+00  1.206948250186E+00  1.170853009052E+00  1.135166889588E+00
  1.099917970445E+00  1.065132785409E+00  1.030836307936E+00  9.970519405755E-01
  9.638015091793E-01  9.311052617603E-01  8.989818718648E-01  8.674484463002E-01
  8.365205370510E-01  8.062121572013E-01  7.765358006778E-01  7.475024656113E-01
  7.191216811140E-01  6.914015372593E-01  6.643487180462E-01  6.379685371297E-01
  6.122649760917E-01  5.872407250281E-01  5.628972252273E-01  5.392347137137E-01
  5.162522694351E-01  4.939478608726E-01  4.723183948553E-01  4.513597663695E-01
  4.310669091532E-01  4.114338468758E-01  3.924537447084E-01  3.741189610962E-01
  3.564210995549E-01  3.393510603201E-01  3.228990916833E-01  3.070548408652E-01
  2.918074042799E-01  2.771453770539E-01  2.630569016754E-01  2.495297156566E-01
  2.365511981012E-01  2.241084150898E-01  2.121881637734E-01  2.007770151186E-01
  1.898613552228E-01  1.794274251415E-01  1.694613591722E-01  1.599492215525E-01
  1.508770415340E-01  1.422308468000E-01  1.339966952078E-01  1.261607048343E-01
  1.187090823186E-01  1.116281494938E-01  1.049043683110E-01  9.852436406128E-02
  9.247494690629E-02  8.674313173397E-02  8.131615635985E-02  7.618149809845E-02
  7.132688873368E-02  6.674032792110E-02  6.241009505833E-02  5.832475966373E-02
  5.447319030675E-02  5.084456213662E-02  4.742836305881E-02  4.421439861195E-02
  4.119279559984E-02  3.835400453616E-02  3.568880096096E-02  3.318828569008E-02
  3.084388406007E-02  2.864734423207E-02  2.659073461915E-02  2.466644050194E-02
  2.286715989732E-02  2.118589874488E-02  1.961596547509E-02  1.815096502224E-02
  1.678479234388E-02  1.551162550700E-02  1.432591839936E-02  1.322239312205E-02
  1.219603211746E-02  1.124207008392E-02  1.035598572596E-02  9.533493386067E-03
  8.770534601135E-03  8.063269623695E-03  7.408068945142E-03  6.801504855104E-03
  6.240343068121E-03  5.721534445868E-03  5.242206840258E-03  4.799657079962E-03
  4.391343120139E-03  4.014876372610E-03  3.668014231178E-03  3.348652804472E-03
  3.054819866466E-03  2.784668032733E-03  2.536468168586E-03  2.308603033465E-03
  2.099561164277E-03  1.907930998923E-03  1.732395239893E-03  1.571725456598E-03
  1.424776924020E-03  1.290483694349E-03  1.167853897423E-03  1.055965265091E-03
  9.539608740330E-04  8.610451010799E-04  7.764797846530E-04  6.995805856730E-04
  6.297135410272E-04  5.662918025429E-04  5.087725543136E-04  4.566541011952E-04
  4.094731212989E-04  3.668020753694E-04  3.282467660302E-04  2.934440400061E-04
  2.620596265835E-04  2.337861057458E-04  2.083409996079E-04  1.854649809767E-04
  1.649201930775E-04  1.464886746985E-04  1.299708852290E-04  1.151843242843E-04
  1.019622408289E-04  9.015242692816E-05  7.961609146642E-05  7.022680938004E-05
  6.186954215265E-05  5.443972551588E-05  4.784242048675E-05  4.199152405492E-05
  3.680903600740E-05  3.222437854686E-05  2.817376552086E-05  2.459961823448E-05
  2.145002496732E-05  1.867824145901E-05  1.624222976357E-05  1.410423300501E-05
  1.223038369208E-05  1.059034337140E-05  9.156971514216E-06  7.906021643598E-06
  6.815862816110E-06  5.867224674777E-06  5.042964389100E-06  4.327853892732E-06
  3.708385920568E-06  3.172597434497E-06  2.709909110910E-06  2.310979643570E-06
  1.967573692467E-06  1.672442383070E-06  1.419215330958E-06  1.202303234167E-06
  1.016810139932E-06  8.584545537479E-07  7.234986170107E-07  6.086846348746E-07
  5.111782885449E-07  4.285179159920E-07  3.585692921433E-07  2.994853840282E-07
  2.496705981931E-07  2.077490770485E-07  1.725366377184E-07  1.430159815365E-07
  1.183148346308E-07  9.768671016094E-08  8.049401079697E-08  6.619321604618E-08
  5.432192313421E-08  4.448753241858E-08  3.635738884769E-08  2.965020986712E-08
  2.412864750839E-08  1.959284826289E-08  1.587488883370E-08  1.283397905833E-08
  1.035233528963E-08  8.331638394602E-09  6.690000359986E-09  5.359372358114E-09
  4.283335099672E-09  3.415219453251E-09  2.716511712228E-09  2.155503601756E-09
  1.706152202883E-09  1.347119484063E-09  1.060965125826E-09  8.334698520024E-10
  6.530695868096E-10  5.103834843000E-10  3.978212645516E-10  3.092573760152E-10
  2.397613188240E-10  1.853750400436E-10  1.429296763696E-10  1.098950976947E-10
  8.425671881842E-11  6.441491665400E-11  4.910313478793E-11  3.732139237596E-11
  2.828245457152E-11  2.136837975678E-11  1.609554608963E-11  1.208658623154E-11
  9.047933300181E-12  6.751910712944E-12  5.022490284848E-12  3.724002466731E-12
  2.752214929269E-12  2.027305095080E-12  1.488342368252E-12  1.088969847806E-12
  7.940336903075E-13  5.769741563142E-13  4.177803125839E-13  3.014356156749E-13
  2.167087187900E-13  1.552290209344E-13  1.107804338930E-13  7.876321862511E-14
  0.000000000000E+00  0.000000000000E+00  0.000000000000E+00  0.000000000000E+00
  0.000000000000E+00  0.000000000000E+00  0.000000000000E+00  0.000000000000E+00
  0.000000000000E+00  0.000000000000E+00  0.000000000000E+00  0.000000000000E+00
  0.000000000000E+00  0.000000000000E+00  0.000000000000E+00  0.000000000000E+00
  0.000000000000E+00  0.000000000000E+00  0.000000000000E+00  0.000000000000E+00
  0.000000000000E+00  0.000000000000E+00  0.000000000000E+00  0.000000000000E+00
  0.000000000000E+00  0.000000000000E+00  0.000000000000E+00  0.000000000000E+00
  0.000000000000E+00  0.000000000000E+00  0.000000000000E+00  0.000000000000E+00
  0.000000000000E+00  0.000000000000E+00  0.000000000000E+00  0.000000000000E+00
  0.000000000000E+00  0.000000000000E+00  0.000000000000E+00  0.000000000000E+00
  0.000000000000E+00  0.000000000000E+00  0.000000000000E+00  0.000000000000E+00
  0.000000000000E+00  0.000000000000E+00  0.000000000000E+00  0.000000000000E+00
  0.000000000000E+00  0.000000000000E+00  0.000000000000E+00  0.000000000000E+00
  0.000000000000E+00  0.000000000000E+00  0.000000000000E+00  0.000000000000E+00
  0.000000000000E+00  0.000000000000E+00  0.000000000000E+00  0.000000000000E+00
  0.000000000000E+00
</data>
</radfunc>
</valence-charge>
<pseudocore-charge matching-radius="0.561329018670"
 number-of-continuous-derivatives="4">
<annotation model-charge-form="Teter function with specified parameters" />
<radfunc>
<data npts="290">
  1.096248730198E+01  1.096132254906E+01  1.095784098685E+01  1.095203346495E+01
  1.094396092819E+01  1.093334977322E+01  1.091983154186E+01  1.090435962989E+01
  1.088697285046E+01  1.086671012342E+01  1.084388735464E+01  1.081910076601E+01
  1.078917285062E+01  1.075794908311E+01  1.072115933994E+01  1.068446498861E+01
  1.064226971107E+01  1.060233173676E+01  1.055750208351E+01  1.050720551989E+01
  1.045080558968E+01  1.040082151734E+01  1.034609110380E+01  1.028619202017E+01
  1.022067030645E+01  1.014903929277E+01  1.007077880315E+01  1.000740079291E+01
  9.939736435188E+00  9.867528865525E+00  9.790510910266E+00  9.708405515845E+00
  9.620926359361E+00  9.527778669386E+00  9.428660288837E+00  9.323263014738E+00
  9.211274252568E+00  9.092379025652E+00  9.009123000688E+00  8.922564658889E+00
  8.832612246534E+00  8.739175470122E+00  8.642166018130E+00  8.541498133726E+00
  8.437089240986E+00  8.328860626982E+00  8.216738181900E+00  8.100653199036E+00
  7.980543236164E+00  7.856353039276E+00  7.728035529128E+00  7.595552850334E+00
  7.458877481925E+00  7.317993407306E+00  7.172897340449E+00  7.023600003845E+00
  6.870127452273E+00  6.712522434796E+00  6.550845785520E+00  6.385177831625E+00
  6.215619804891E+00  6.042295240541E+00  5.865351344550E+00  5.684960307831E+00
  5.501320542748E+00  5.314657814448E+00  5.125226236431E+00  5.029559498137E+00
  4.933309096801E+00  4.836515103882E+00  4.739219478746E+00  4.641466074022E+00
  4.543300636171E+00  4.444770800898E+00  4.345926083081E+00  4.246817860859E+00
  4.147499353534E+00  4.048025592928E+00  3.948453387856E+00  3.848841281380E+00
  3.749249500491E+00  3.649739897907E+00  3.550375885689E+00  3.451222360352E+00
  3.352345619235E+00  3.253813267849E+00  3.155694118011E+00  3.058058076555E+00
  2.960976024483E+00  2.864519686444E+00  2.768761490473E+00  2.673774417987E+00
  2.579631844066E+00  2.486407368150E+00  2.394174635290E+00  2.303007148224E+00
  2.212978070575E+00  2.124160021579E+00  2.036624862826E+00  1.950443477578E+00
  1.865685543344E+00  1.782419298455E+00  1.700711303526E+00  1.620626198739E+00
  1.542226458039E+00  1.465572141399E+00  1.390720646424E+00  1.317726460683E+00
  1.246640916222E+00  1.177511947841E+00  1.110383856775E+00  1.045297081529E+00
  9.822879776649E-01  9.213886084134E-01  8.626265480293E-01  8.060246998442E-01
  7.516011309874E-01  6.993689257461E-01  6.493360595174E-01  6.015052952612E-01
  5.558741042996E-01  5.124346132143E-01  4.711735784803E-01  4.320723903257E-01
  3.951071071363E-01  3.602485215189E-01  3.274622589073E-01  2.967089093313E-01
  2.679441926843E-01  2.411191575040E-01  2.161804129450E-01  1.930703932582E-01
  1.717276537097E-01  1.520871964784E-01  1.340808246642E-01  1.176375221301E-01
  1.026838564924E-01  8.914440217285E-02  7.694218004501E-02  6.599910984223E-02
  5.623647117071E-02  4.757536867930E-02  3.993719669931E-02  3.324409848458E-02
  2.741941506444E-02  2.238811867715E-02  1.807722578537E-02  1.441618479419E-02
  1.133723379972E-02  8.775723995563E-03  6.670404755312E-03  4.963666891413E-03
  3.601741158913E-03  2.534849721899E-03  1.717309021056E-03  1.107583261561E-03
  6.682885673851E-04  3.661487044068E-04  1.719041418297E-04  6.017707878233E-05
  9.295888550194E-06  1.083203985144E-06  2.061256124996E-05  5.593911284215E-05
  9.781039386152E-05  1.393634590782E-04  1.758148870289E-04  2.041501596542E-04
  2.228187652387E-04  2.314410375115E-04  2.305322395943E-04  2.212487393529E-04
  2.051603203285E-04  1.840517537937E-04  1.597557523082E-04  1.340183680642E-04
  1.083968286737E-04  8.418875947890E-05  6.239076614244E-05  4.368348399203E-05
  2.843947770715E-05  1.674982736771E-05  8.464888120751E-06  3.244575183700E-06
  6.136075982734E-07  1.743588656642E-08  8.750619503358E-07  2.625604719251E-06
  4.766233074603E-06  6.879931668330E-06  8.652433621488E-06  9.878493091508E-06
  1.045842843518E-05  1.038649665013E-05  9.733124349423E-06  8.623294084104E-06
  7.213456035045E-06  5.669208179834E-06  4.145682873369E-06  2.772128590912E-06
  1.641628333864E-06  8.063047553659E-07  2.777834107883E-07  3.217446088212E-08
  1.843686656959E-08  1.687424062821E-07  4.093783199569E-07  6.708172609506E-07
  8.958231298927E-07  1.044816166799E-06  1.098142512749E-06  1.055327332204E-06
  9.317811863780E-07  7.537280829715E-07  5.522951091427E-07  3.577304827174E-07
  1.946025561005E-07  7.860037986638E-08  1.524739047020E-08  0.000000000000E+00
  0.000000000000E+00  0.000000000000E+00  0.000000000000E+00  0.000000000000E+00
  0.000000000000E+00  0.000000000000E+00  0.000000000000E+00  0.000000000000E+00
  0.000000000000E+00  0.000000000000E+00  0.000000000000E+00  0.000000000000E+00
  0.000000000000E+00  0.000000000000E+00  0.000000000000E+00  0.000000000000E+00
  0.000000000000E+00  0.000000000000E+00  0.000000000000E+00  0.000000000000E+00
  0.000000000000E+00  0.000000000000E+00  0.000000000000E+00  0.000000000000E+00
  0.000000000000E+00  0.000000000000E+00  0.000000000000E+00  0.000000000000E+00
  0.000000000000E+00  0.000000000000E+00  0.000000000000E+00  0.000000000000E+00
  0.000000000000E+00  0.000000000000E+00  0.000000000000E+00  0.000000000000E+00
  0.000000000000E+00  0.000000000000E+00  0.000000000000E+00  0.000000000000E+00
  0.000000000000E+00  0.000000000000E+00  0.000000000000E+00  0.000000000000E+00
  0.000000000000E+00  0.000000000000E+00  0.000000000000E+00  0.000000000000E+00
  0.000000000000E+00  0.000000000000E+00  0.000000000000E+00  0.000000000000E+00
  0.000000000000E+00  0.000000000000E+00  0.000000000000E+00  0.000000000000E+00
  0.000000000000E+00  0.000000000000E+00  0.000000000000E+00  0.000000000000E+00
  0.000000000000E+00  0.000000000000E+00  0.000000000000E+00  0.000000000000E+00
  0.000000000000E+00  0.000000000000E+00  0.000000000000E+00  0.000000000000E+00
  0.000000000000E+00  0.000000000000E+00
</data>
</radfunc>
</pseudocore-charge>
<semilocal-potentials set="scalar_relativistic">
<slps n="2" l="s" rc="1.20439874552" eref="-0.505334536779">
<radfunc>
<data npts="290">
  1.461721096091E+01  1.461218352065E+01  1.459716460353E+01  1.457214049723E+01
  1.453741599565E+01  1.449187619143E+01  1.443403173463E+01  1.436806236348E+01
  1.429422586386E+01  1.420857083037E+01  1.411259911714E+01  1.400897076003E+01
  1.388467428564E+01  1.375595030438E+01  1.360551628206E+01  1.345678845474E+01
  1.328736750894E+01  1.312856795033E+01  1.295209686923E+01  1.275631016209E+01
  1.253949057718E+01  1.234970134739E+01  1.214439397077E+01  1.192264225620E+01
  1.168352919237E+01  1.142616126485E+01  1.114968509312E+01  1.092930757507E+01
  1.069742681127E+01  1.045376726410E+01  1.019809016716E+01  9.930199691053E+00
  9.649949348379E+00  9.357248558262E+00  9.052069273727E+00  8.734452559123E+00
  8.404514989085E+00  8.062454726634E+00  7.827816895523E+00  7.588023250435E+00
  7.343199703738E+00  7.093491447334E+00  6.839063353585E+00  6.580100277866E+00
  6.316807254352E+00  6.049409577368E+00  5.778152761622E+00  5.503302375760E+00
  5.225143744996E+00  4.943981520037E+00  4.660139111200E+00  4.373957988259E+00
  4.085796848571E+00  3.796030657747E+00  3.505049569277E+00  3.213257731281E+00
  2.921071990556E+00  2.628920505814E+00  2.337241283605E+00  2.046480652006E+00
  1.757091688165E+00  1.469532616884E+00  1.184265197962E+00  9.017531202203E-01
  6.224604201139E-01  3.468499421009E-01  7.538185712340E-02 -5.865606398445E-02
 -1.914877460771E-01 -3.230570330595E-01 -4.533081839512E-01 -5.821859092085E-01
 -7.096354046574E-01 -8.356023842465E-01 -9.600331107917E-01 -1.082874425115E+00
 -1.204073773446E+00 -1.323579233138E+00 -1.441339536771E+00 -1.557304094663E+00
 -1.671423015922E+00 -1.783647128075E+00 -1.893927995436E+00 -2.002217936336E+00
 -2.108470039337E+00 -2.212638178630E+00 -2.314677028789E+00 -2.414542079096E+00
 -2.512189647625E+00 -2.607576895380E+00 -2.700661840730E+00 -2.791403374384E+00
 -2.879761275299E+00 -2.965696227775E+00 -3.049169840167E+00 -3.130144665540E+00
 -3.208584224769E+00 -3.284453032514E+00 -3.357716626575E+00 -3.428341601246E+00
 -3.496295645228E+00 -3.561547584862E+00 -3.624067433339E+00 -3.683826446817E+00
 -3.740797188276E+00 -3.794953600080E+00 -3.846271086339E+00 -3.894726606121E+00
 -3.940298778665E+00 -3.982968001797E+00 -4.022716584669E+00 -4.059528895978E+00
 -4.093391528664E+00 -4.124293481983E+00 -4.152226361656E+00 -4.177184598425E+00
 -4.199165685140E+00 -4.218170431929E+00 -4.234203238629E+00 -4.247272383002E+00
 -4.257390322758E+00 -4.264574008705E+00 -4.268845205758E+00 -4.270230817968E+00
 -4.268763213129E+00 -4.264480542147E+00 -4.257427047926E+00 -4.247653358368E+00
 -4.235216757937E+00 -4.220181432214E+00 -4.202618680040E+00 -4.182607087844E+00
 -4.160232660984E+00 -4.135588906839E+00 -4.108776864395E+00 -4.079905074648E+00
 -4.049089485623E+00 -4.016453284961E+00 -3.982126651810E+00 -3.946246418368E+00
 -3.908955629707E+00 -3.870402988679E+00 -3.830742170774E+00 -3.790130991947E+00
 -3.748730410792E+00 -3.706703345122E+00 -3.664213282397E+00 -3.621422663444E+00
 -3.578491020179E+00 -3.535572850400E+00 -3.492815216752E+00 -3.450355062794E+00
 -3.408316246735E+00 -3.366806284046E+00 -3.325913055442E+00 -3.285630676902E+00
 -3.245902045264E+00 -3.206741469935E+00 -3.168151702915E+00 -3.130110639378E+00
 -3.092577940288E+00 -3.055544283104E+00 -3.019011992874E+00 -2.982969911569E+00