<PP_INFO>
Generated using APE Version-0.7.2
Author: Unknown Generation date: 2006/11/29
    2        The Pseudo was generated with a Full-Relativistic Calculation
  0.00000000000E+00    Local Potential cutoff radius
nl pn  l   occ               Rcut            Rcut US             E pseu
</PP_INFO>


<PP_HEADER>
   0                   Version Number
  Cr                   Element
   NC                  Norm - Conserving pseudopotential
    F                  Nonlinear Core Correction
 SLA  PW   GGX  GGC    PW91 Exchange-Correlation functional
   14.00000000000      Z valence
    0.00000000000      Total energy
    0.00000000000    0.Suggested cutoff for wfc and rho
    2                  Max angular momentum component
  900                  Number of points in mesh
    5    2             Number of Wavefunctions, Number of Projectors
 Wavefunctions         nl  l   occ
                       3s  0  2.00
                       4s  0  1.00
                       3p  1  6.00
                       4p  1  0.00
                       3d  2  5.00
</PP_HEADER>


<PP_MESH>
  <PP_R>
  1.00000000000E-07  2.01851479820E-07  3.05588719236E-07  4.11246632706E-07
  5.18860781121E-07  6.28467383779E-07  7.40103330566E-07  8.53806194381E-07
  9.69614243774E-07  1.08756645583E-06  1.20770252929E-06  1.33006289791E-06
  1.45468874406E-06  1.58162201261E-06  1.71090542500E-06  1.84258249369E-06
  1.97669753673E-06  2.11329569273E-06  2.25242293602E-06  2.39412609215E-06
  2.53845285362E-06  2.68545179595E-06  2.83517239403E-06  2.98766503878E-06
  3.14298105406E-06  3.30117271403E-06  3.46229326067E-06  3.62639692170E-06
  3.79353892891E-06  3.96377553665E-06  4.13716404083E-06  4.31376279818E-06
  4.49363124588E-06  4.67682992159E-06  4.86342048382E-06  5.05346573265E-06
  5.24702963091E-06  5.44417732569E-06  5.64497517025E-06  5.84949074639E-06
  6.05779288714E-06  6.26995170000E-06  6.48603859046E-06  6.70612628610E-06
  6.93028886101E-06  7.15860176075E-06  7.39114182776E-06  7.62798732719E-06
  7.86921797324E-06  8.11491495603E-06  8.36516096887E-06  8.62004023613E-06
  8.87963854160E-06  9.14404325731E-06  9.41334337297E-06  9.68762952593E-06
  9.96699403166E-06  1.02515309148E-05  1.05413359410E-05  1.08365066487E-05
  1.11371423825E-05  1.14433443263E-05  1.17552155373E-05  1.20728609808E-05
  1.23963875656E-05  1.27259041798E-05  1.30615217276E-05  1.34033531666E-05
  1.37515135457E-05  1.41061200440E-05  1.44672920100E-05  1.48351510021E-05
  1.52098208292E-05  1.55914275926E-05  1.59800997281E-05  1.63759680499E-05
  1.67791657937E-05  1.71898286623E-05  1.76080948712E-05  1.80341051944E-05
  1.84680030129E-05  1.89099343618E-05  1.93600479806E-05  1.98184953621E-05
  2.02854308044E-05  2.07610114622E-05  2.12453973999E-05  2.17387516455E-05
  2.22412402454E-05  2.27530323203E-05  2.32743001222E-05  2.38052190923E-05
  2.43459679199E-05  2.48967286030E-05  2.54576865090E-05  2.60290304374E-05
  2.66109526833E-05  2.72036491022E-05  2.78073191757E-05  2.84221660788E-05
  2.90483967482E-05  2.96862219521E-05  3.03358563610E-05  3.09975186198E-05
  3.16714314218E-05  3.23578215834E-05  3.30569201203E-05  3.37689623255E-05
  3.44941878484E-05  3.52328407756E-05  3.59851697127E-05  3.67514278682E-05
  3.75318731388E-05  3.83267681961E-05  3.91363805750E-05  3.99609827637E-05
  4.08008522956E-05  4.16562718423E-05  4.25275293093E-05  4.34149179325E-05
  4.43187363770E-05  4.52392888376E-05  4.61768851413E-05  4.71318408513E-05
  4.81044773735E-05  4.90951220647E-05  5.01041083425E-05  5.11317757975E-05
  5.21784703082E-05  5.32445441564E-05  5.43303561469E-05  5.54362717272E-05
  5.65626631113E-05  5.77099094046E-05  5.88783967315E-05  6.00685183654E-05
  6.12806748613E-05  6.25152741901E-05  6.37727318762E-05  6.50534711377E-05
  6.63579230282E-05  6.76865265822E-05  6.90397289629E-05  7.04179856126E-05
  7.18217604060E-05  7.32515258065E-05  7.47077630248E-05  7.61909621814E-05
  7.77016224710E-05  7.92402523310E-05  8.08073696124E-05  8.24035017541E-05
  8.40291859602E-05  8.56849693814E-05  8.73714092984E-05  8.90890733103E-05
  9.08385395246E-05  9.26203967529E-05  9.44352447082E-05  9.62836942072E-05
  9.81663673756E-05  1.00083897858E-04  1.02036931030E-04  1.04026124217E-04
  1.06052146915E-04  1.08115681014E-04  1.10217421030E-04  1.12358074339E-04
  1.14538361412E-04  1.16759016060E-04  1.19020785681E-04  1.21324431509E-04
  1.23670728876E-04  1.26060467464E-04  1.28494451581E-04  1.30973500422E-04
  1.33498448352E-04  1.36070145184E-04  1.38689456463E-04  1.41357263762E-04
  1.44074464975E-04  1.46841974620E-04  1.49660724148E-04  1.52531662255E-04
  1.55455755201E-04  1.58433987138E-04  1.61467360438E-04  1.64556896033E-04
  1.67703633755E-04  1.70908632692E-04  1.74172971538E-04  1.77497748958E-04
  1.80884083961E-04  1.84333116274E-04  1.87846006724E-04  1.91423937631E-04
  1.95068113207E-04  1.98779759959E-04  2.02560127102E-04  2.06410486979E-04
  2.10332135492E-04  2.14326392536E-04  2.18394602443E-04  2.22538134436E-04
  2.26758383087E-04  2.31056768791E-04  2.35434738238E-04  2.39893764907E-04
  2.44435349554E-04  2.49061020724E-04  2.53772335263E-04  2.58570878840E-04
  2.63458266483E-04  2.68436143121E-04  2.73506184141E-04  2.78670095948E-04
  2.83929616539E-04  2.89286516093E-04  2.94742597561E-04  3.00299697277E-04
  3.05959685572E-04  3.11724467409E-04  3.17595983017E-04  3.23576208553E-04
  3.29667156757E-04  3.35870877639E-04  3.42189459160E-04  3.48625027943E-04
  3.55179749984E-04  3.61855831381E-04  3.68655519077E-04  3.75581101619E-04
  3.82634909924E-04  3.89819318066E-04  3.97136744076E-04  4.04589650751E-04
  4.12180546489E-04  4.19911986131E-04  4.27786571817E-04  4.35806953867E-04
  4.43975831673E-04  4.52295954604E-04  4.60770122931E-04  4.69401188775E-04
  4.78192057061E-04  4.87145686499E-04  4.96265090580E-04  5.05553338587E-04
  5.15013556631E-04  5.24648928704E-04  5.34462697746E-04  5.44458166741E-04
  5.54638699828E-04  5.65007723430E-04  5.75568727412E-04  5.86325266252E-04
  5.97280960238E-04  6.08439496687E-04  6.19804631186E-04  6.31380188857E-04
  6.43170065643E-04  6.55178229618E-04  6.67408722326E-04  6.79865660138E-04
  6.92553235641E-04  7.05475719043E-04  7.18637459618E-04  7.32042887163E-04
  7.45696513494E-04  7.59602933962E-04  7.73766828998E-04  7.88192965693E-04
  8.02886199397E-04  8.17851475358E-04  8.33093830384E-04  8.48618394537E-04
  8.64430392863E-04  8.80535147147E-04  8.96938077706E-04  9.13644705215E-04
  9.30660652560E-04  9.47991646737E-04  9.65643520774E-04  9.83622215697E-04
  1.00193378253E-03  1.02058438432E-03  1.03958029825E-03  1.05892791768E-03
  1.07863375439E-03  1.09870444069E-03  1.11914673169E-03  1.13996750759E-03
  1.16117377595E-03  1.18277267409E-03  1.20477147147E-03  1.22717757214E-03
  1.24999851725E-03  1.27324198755E-03  1.29691580601E-03  1.32102794044E-03
  1.34558650618E-03  1.37059976881E-03  1.39607614694E-03  1.42202421508E-03
  1.44845270646E-03  1.47537051602E-03  1.50278670340E-03  1.53071049596E-03
  1.55915129190E-03  1.58811866343E-03  1.61762236001E-03  1.64767231157E-03
  1.67827863192E-03  1.70945162212E-03  1.74120177394E-03  1.77353977341E-03
  1.80647650442E-03  1.84002305236E-03  1.87419070786E-03  1.90899097061E-03
  1.94443555320E-03  1.98053638509E-03  2.01730561659E-03  2.05475562299E-03
  2.09289900871E-03  2.13174861151E-03  2.17131750687E-03  2.21161901234E-03
  2.25266669206E-03  2.29447436128E-03  2.33705609106E-03  2.38042621297E-03
  2.42459932394E-03  2.46959029114E-03  2.51541425703E-03  2.56208664439E-03
  2.60962316159E-03  2.65803980781E-03  2.70735287847E-03  2.75757897067E-03
  2.80873498884E-03  2.86083815036E-03  2.91390599141E-03  2.96795637282E-03
  3.02300748614E-03  3.07907785971E-03  3.13618636493E-03  3.19435222260E-03
  3.25359500939E-03  3.31393466442E-03  3.37539149599E-03  3.43798618839E-03
  3.50173980889E-03  3.56667381481E-03  3.63281006074E-03  3.70017080592E-03
  3.76877872171E-03  3.83865689921E-03  3.90982885707E-03  3.98231854936E-03
  4.05615037368E-03  4.13134917933E-03  4.20794027569E-03  4.28594944074E-03
  4.36540292974E-03  4.44632748406E-03  4.52875034016E-03  4.61269923882E-03
  4.69820243440E-03  4.78528870438E-03  4.87398735908E-03  4.96432825148E-03
  5.05634178726E-03  5.15005893510E-03  5.24551123701E-03  5.34273081903E-03
  5.44175040200E-03  5.54260331256E-03  5.64532349440E-03  5.74994551969E-03
  5.85650460066E-03  5.96503660151E-03  6.07557805046E-03  6.18816615203E-03
  6.30283879957E-03  6.41963458805E-03  6.53859282698E-03  6.65975355370E-03
  6.78315754682E-03  6.90884633998E-03  7.03686223577E-03  7.16724832005E-03
  7.30004847636E-03  7.43530740076E-03  7.57307061686E-03  7.71338449111E-03
  7.85629624842E-03  8.00185398807E-03  8.15010669991E-03  8.30110428078E-03
  8.45489755140E-03  8.61153827338E-03  8.77107916673E-03  8.93357392752E-03
  9.09907724601E-03  9.26764482505E-03  9.43933339879E-03  9.61420075184E-03
  9.79230573863E-03  9.97370830332E-03  1.01584694999E-02  1.03466515127E-02
  1.05383176775E-02  1.07335325027E-02  1.09323616910E-02  1.11348721616E-02
  1.13411320727E-02  1.15512108444E-02  1.17651791822E-02  1.19831091006E-02
  1.22050739474E-02  1.24311484286E-02  1.26614086331E-02  1.28959320589E-02
  1.31347976386E-02  1.33780857664E-02  1.36258783247E-02  1.38782587122E-02
  1.41353118716E-02  1.43971243184E-02  1.46637841699E-02  1.49353811747E-02
  1.52120067432E-02  1.54937539783E-02  1.57807177066E-02  1.60729945104E-02
  1.63706827603E-02  1.66738826481E-02  1.69826962205E-02  1.72972274140E-02
  1.76175820890E-02  1.79438680662E-02  1.82761951624E-02  1.86146752278E-02
  1.89594221832E-02  1.93105520590E-02  1.96681830335E-02  2.00324354734E-02
  2.04034319737E-02  2.07812973993E-02  2.11661589270E-02  2.15581460883E-02
  2.19573908127E-02  2.23640274727E-02  2.27781929283E-02  2.32000265738E-02
  2.36296703841E-02  2.40672689628E-02  2.45129695910E-02  2.49669222763E-02
  2.54292798040E-02  2.59001977880E-02  2.63798347234E-02  2.68683520399E-02
  2.73659141560E-02  2.78726885342E-02  2.83888457378E-02  2.89145594878E-02
  2.94500067218E-02  2.99953676533E-02  3.05508258324E-02  3.11165682076E-02
  3.16927851888E-02  3.22796707110E-02  3.28774223003E-02  3.34862411396E-02
  3.41063321368E-02  3.47379039937E-02  3.53811692762E-02  3.60363444855E-02
  3.67036501316E-02  3.73833108070E-02  3.80755552628E-02  3.87806164849E-02
  3.94987317733E-02  4.02301428213E-02  4.09750957973E-02  4.17338414273E-02
  4.25066350795E-02  4.32937368503E-02  4.40954116515E-02  4.49119292999E-02
  4.57435646078E-02  4.65905974755E-02  4.74533129859E-02  4.83320014999E-02
  4.92269587544E-02  5.01384859618E-02  5.10668899116E-02  5.20124830731E-02
  5.29755837012E-02  5.39565159431E-02  5.49556099475E-02  5.59732019757E-02
  5.70096345150E-02  5.80652563937E-02  5.91404228984E-02  6.02354958939E-02
  6.13508439450E-02  6.24868424402E-02  6.36438737183E-02  6.48223271970E-02
  6.60225995041E-02  6.72450946107E-02  6.84902239675E-02  6.97584066431E-02
  7.10500694650E-02  7.23656471634E-02  7.37055825174E-02  7.50703265041E-02
  7.64603384503E-02  7.78760861872E-02  7.93180462078E-02  8.07867038271E-02
  8.22825533459E-02  8.38060982167E-02  8.53578512133E-02  8.69383346035E-02
  8.85480803247E-02  9.01876301631E-02  9.18575359359E-02  9.35583596771E-02
  9.52906738267E-02  9.70550614232E-02  9.88521162999E-02  1.00682443285E-01
  1.02546658405E-01  1.04445389092E-01  1.06379274394E-01  1.08348965192E-01
  1.10355124418E-01  1.12398427277E-01  1.14479561477E-01  1.16599227456E-01
  1.18758138623E-01  1.20957021594E-01  1.23196616440E-01  1.25477676933E-01
  1.27800970800E-01  1.30167279984E-01  1.32577400906E-01  1.35032144730E-01
  1.37532337640E-01  1.40078821118E-01  1.42672452223E-01  1.45314103885E-01
  1.48004665195E-01  1.50745041704E-01  1.53536155731E-01  1.56378946671E-01
  1.59274371312E-01  1.62223404156E-01  1.65227037747E-01  1.68286283009E-01
  1.71402169579E-01  1.74575746160E-01  1.77808080871E-01  1.81100261607E-01
  1.84453396405E-01  1.87868613817E-01  1.91347063291E-01  1.94889915554E-01
  1.98498363012E-01  2.02173620147E-01  2.05916923926E-01  2.09729534219E-01
  2.13612734222E-01  2.17567830890E-01  2.21596155374E-01  2.25699063473E-01
  2.29877936088E-01  2.34134179685E-01  2.38469226775E-01  2.42884536386E-01
  2.47381594563E-01  2.51961914866E-01  2.56627038874E-01  2.61378536712E-01
  2.66218007574E-01  2.71147080262E-01  2.76167413736E-01  2.81280697671E-01
  2.86488653027E-01  2.91793032625E-01  2.97195621741E-01  3.02698238704E-01
  3.08302735510E-01  3.14010998443E-01  3.19824948713E-01  3.25746543098E-01
  3.31777774609E-01  3.37920673154E-01  3.44177306225E-01  3.50549779596E-01
  3.57040238025E-01  3.63650865982E-01  3.70383888382E-01  3.77241571333E-01
  3.84226222900E-01  3.91340193881E-01  3.98585878599E-01  4.05965715707E-01
  4.13482189011E-01  4.21137828300E-01  4.28935210207E-01  4.36876959066E-01
  4.44965747802E-01  4.53204298830E-01  4.61595384967E-01  4.70141830371E-01
  4.78846511486E-01  4.87712358016E-01  4.96742353906E-01  5.05939538347E-01
  5.15307006802E-01  5.24847912045E-01  5.34565465224E-01  5.44462936938E-01
  5.54543658344E-01  5.64811022273E-01  5.75268484373E-01  5.85919564273E-01
  5.96767846768E-01  6.07816983025E-01  6.19070691810E-01  6.30532760741E-01
  6.42207047567E-01  6.54097481456E-01  6.66208064330E-01  6.78542872202E-01
  6.91106056552E-01  7.03901845726E-01  7.16934546354E-01  7.30208544804E-01
  7.43728308657E-01  7.57498388209E-01  7.71523418005E-01  7.85808118398E-01
  8.00357297136E-01  8.15175850982E-01  8.30268767362E-01  8.45641126044E-01
  8.61298100844E-01  8.77244961373E-01  8.93487074807E-01  9.10029907693E-01
  9.26879027792E-01  9.44040105950E-01  9.61518918006E-01  9.79321346741E-01
  9.97453383851E-01  1.01592113197E+00  1.03473080672E+00  1.05388873880E+00
  1.07340137612E+00  1.09327528599E+00  1.11351715729E+00  1.13413380275E+00
  1.15513216125E+00  1.17651930011E+00  1.19830241753E+00  1.22048884498E+00
  1.24308604965E+00  1.26610163701E+00  1.28954335332E+00  1.31341908828E+00
  1.33773687766E+00  1.36250490599E+00  1.38773150938E+00  1.41342517823E+00
  1.43959456018E+00  1.46624846296E+00  1.49339585736E+00  1.52104588030E+00
  1.54920783783E+00  1.57789120832E+00  1.60710564563E+00  1.63686098235E+00
  1.66716723312E+00  1.69803459801E+00  1.72947346593E+00  1.76149441815E+00
  1.79410823184E+00  1.82732588370E+00  1.86115855369E+00  1.89561762873E+00
  1.93071470660E+00  1.96646159978E+00  2.00287033947E+00  2.03995317963E+00
  2.07772260109E+00  2.11619131577E+00  2.15537227094E+00  2.19527865359E+00
  2.23592389486E+00  2.27732167457E+00  2.31948592581E+00  2.36243083966E+00
  2.40617086993E+00  2.45072073802E+00  2.49609543794E+00  2.54231024127E+00
  2.58938070235E+00  2.63732266352E+00  2.68615226043E+00  2.73588592748E+00
  2.78654040333E+00  2.83813273658E+00  2.89068029147E+00  2.94420075373E+00
  2.99871213655E+00  3.05423278663E+00  3.11078139034E+00  3.16837698003E+00
  3.22703894044E+00  3.28678701522E+00  3.34764131354E+00  3.40962231691E+00
  3.47275088606E+00  3.53704826792E+00  3.60253610283E+00  3.66923643179E+00
  3.73717170388E+00  3.80636478383E+00  3.87683895969E+00  3.94861795069E+00
  4.02172591522E+00  4.09618745897E+00  4.17202764317E+00  4.24927199308E+00
  4.32794650654E+00  4.40807766273E+00  4.48969243112E+00  4.57281828047E+00
  4.65748318815E+00  4.74371564951E+00  4.83154468749E+00  4.92099986239E+00
  5.01211128179E+00  5.10490961074E+00  5.19942608203E+00  5.29569250670E+00
  5.39374128481E+00  5.49360541625E+00  5.59531851193E+00  5.69891480506E+00
  5.80442916265E+00  5.91189709727E+00  6.02135477902E+00  6.13283904766E+00
  6.24638742504E+00  6.36203812770E+00  6.47983007979E+00  6.59980292611E+00
  6.72199704546E+00  6.84645356427E+00  6.97321437042E+00  7.10232212731E+00
  7.23382028826E+00  7.36775311113E+00  7.50416567319E+00  7.64310388630E+00
  7.78461451240E+00  7.92874517918E+00  8.07554439617E+00  8.22506157104E+00
  8.37734702623E+00  8.53245201589E+00  8.69042874313E+00  8.85133037760E+00
  9.01521107337E+00  9.18212598714E+00  9.35213129686E+00  9.52528422059E+00
  9.70164303575E+00  9.88126709879E+00  1.00642168651E+01  1.02505539094E+01
  1.04403409465E+01  1.06336418523E+01  1.08305216854E+01  1.10310467088E+01
  1.12352844126E+01  1.14433035362E+01  1.16551740920E+01  1.18709673883E+01
  1.20907560539E+01  1.23146140624E+01  1.25426167567E+01  1.27748408749E+01
  1.30113645757E+01  1.32522674652E+01  1.34976306230E+01  1.37475366302E+01
  1.40020695967E+01  1.42613151897E+01  1.45253606626E+01  1.47942948840E+01
  1.50682083684E+01  1.53471933056E+01  1.56313435926E+01  1.59207548648E+01
  1.62155245284E+01  1.65157517928E+01  1.68215377044E+01  1.71329851804E+01
  1.74501990437E+01  1.77732860575E+01  1.81023549623E+01  1.84375165114E+01
  1.87788835090E+01  1.91265708476E+01  1.94806955471E+01  1.98413767940E+01
  2.02087359814E+01  2.05828967501E+01  2.09639850298E+01  2.13521290822E+01
  2.17474595433E+01  2.21501094682E+01  2.25602143751E+01  2.29779122917E+01
  2.34033438009E+01  2.38366520886E+01  2.42779829918E+01  2.47274850477E+01
  2.51853095434E+01  2.56516105673E+01  2.61265450605E+01  2.66102728700E+01
  2.71029568023E+01  2.76047626782E+01  2.81158593886E+01  2.86364189515E+01
  2.91666165696E+01  2.97066306896E+01  3.02566430621E+01  3.08168388027E+01
  3.13874064543E+01  3.19685380509E+01  3.25604291818E+01  3.31632790575E+01
  3.37772905769E+01  3.44026703958E+01  3.50396289958E+01  3.56883807557E+01
  3.63491440236E+01  3.70221411900E+01  3.77075987632E+01  3.84057474450E+01
  3.91168222087E+01  3.98410623782E+01  4.05787117083E+01  4.13300184669E+01
  4.20952355185E+01  4.28746204094E+01  4.36684354543E+01  4.44769478246E+01
  4.53004296382E+01  4.61391580514E+01  4.69934153520E+01  4.78634890540E+01
  4.87496719951E+01  4.96522624346E+01  5.05715641538E+01  5.15078865589E+01
  5.24615447844E+01  5.34328597994E+01  5.44221585160E+01  5.54297738987E+01
  5.64560450768E+01  5.75013174587E+01  5.85659428478E+01  5.96502795612E+01
  6.07546925499E+01  6.18795535224E+01  6.30252410687E+01  6.41921407887E+01
  6.53806454216E+01  6.65911549779E+01  6.78240768744E+01  6.90798260710E+01
  7.03588252105E+01  7.16615047611E+01  7.29883031606E+01  7.43396669647E+01
  7.57160509970E+01  7.71179185019E+01  7.85457413007E+01  7.99999999506E+01
  </PP_R>
  <PP_RAB>
  1.83454859875E-09  3.70306349459E-09  5.60617356667E-09  7.54451933769E-09
  9.51875318950E-09  1.15295395827E-08  1.35775552802E-08  1.56634895750E-08
  1.77880445224E-08  1.99519351759E-08  2.21558898281E-08  2.44006502561E-08
  2.66869719703E-08  2.90156244697E-08  3.13873915002E-08  3.38030713187E-08
  3.62634769615E-08  3.87694365183E-08  4.13217934106E-08  4.39214066757E-08
  4.65691512558E-08  4.92659182925E-08  5.20126154267E-08  5.48101671041E-08
  5.76595148862E-08  6.05616177675E-08  6.35174524980E-08  6.65280139121E-08
  6.95943152632E-08  7.27173885651E-08  7.58982849389E-08  7.91380749672E-08
  8.24378490541E-08  8.57987177923E-08  8.92218123370E-08  9.27082847864E-08
  9.62593085696E-08  9.98760788417E-08  1.03559812885E-07  1.07311750522E-07
  1.11133154526E-07  1.15025311054E-07  1.18989530075E-07  1.23027145812E-07
  1.27139517189E-07  1.31328028292E-07  1.35594088832E-07  1.39939134623E-07
  1.44364628060E-07  1.48872058615E-07  1.53462943337E-07  1.58138827363E-07
  1.62901284439E-07  1.67751917446E-07  1.72692358944E-07  1.77724271720E-07
  1.82849349345E-07  1.88069316748E-07  1.93385930795E-07  1.98800980877E-07
  2.04316289519E-07  2.09933712988E-07  2.15655141918E-07  2.21482501951E-07
  2.27417754379E-07  2.33462896808E-07  2.39619963828E-07  2.45891027703E-07
  2.52278199059E-07  2.58783627604E-07  2.65409502846E-07  2.72158054831E-07
  2.79031554894E-07  2.86032316424E-07  2.93162695641E-07  3.00425092390E-07
  3.07821950949E-07  3.15355760852E-07  3.23029057725E-07  3.30844424141E-07
  3.38804490489E-07  3.46911935859E-07  3.55169488944E-07  3.63579928958E-07
  3.72146086572E-07  3.80870844865E-07  3.89757140298E-07  3.98807963697E-07
  4.08026361265E-07  4.17415435604E-07  4.26978346760E-07  4.36718313285E-07
  4.46638613326E-07  4.56742585720E-07  4.67033631123E-07  4.77515213156E-07
  4.88190859565E-07  4.99064163413E-07  5.10138784287E-07  5.21418449532E-07
  5.32906955503E-07  5.44608168843E-07  5.56526027788E-07  5.68664543485E-07
  5.81027801351E-07  5.93619962442E-07  6.06445264854E-07  6.19508025153E-07
  6.32812639822E-07  6.46363586747E-07  6.60165426720E-07  6.74222804974E-07
  6.88540452750E-07  7.03123188886E-07  7.17975921438E-07  7.33103649337E-07
  7.48511464064E-07  7.64204551372E-07  7.80188193025E-07  7.96467768577E-07
  8.13048757186E-07  8.29936739453E-07  8.47137399303E-07  8.64656525900E-07
  8.82500015590E-07  9.00673873891E-07  9.19184217511E-07  9.38037276407E-07
  9.57239395885E-07  9.76797038730E-07  9.96716787385E-07  1.01700534617E-06
  1.03766954352E-06  1.05871633432E-06  1.08015280220E-06  1.10198616196E-06
  1.12422376197E-06  1.14687308666E-06  1.16994175902E-06  1.19343754319E-06
  1.21736834707E-06  1.24174222495E-06  1.26656738027E-06  1.29185216832E-06
  1.31760509912E-06  1.34383484024E-06  1.37055021973E-06  1.39776022907E-06
  1.42547402624E-06  1.45370093878E-06  1.48245046691E-06  1.51173228675E-06
  1.54155625357E-06  1.57193240512E-06  1.60287096499E-06  1.63438234605E-06
  1.66647715397E-06  1.69916619078E-06  1.73246045852E-06  1.76637116290E-06
  1.80090971713E-06  1.83608774572E-06  1.87191708841E-06  1.90840980415E-06
  1.94557817517E-06  1.98343471106E-06  2.02199215309E-06  2.06126347837E-06
  2.10126190431E-06  2.14200089304E-06  2.18349415592E-06  2.22575565819E-06
  2.26879962365E-06  2.31264053944E-06  2.35729316094E-06  2.40277251672E-06
  2.44909391359E-06  2.49627294178E-06  2.54432548015E-06  2.59326770157E-06
  2.64311607835E-06  2.69388738777E-06  2.74559871773E-06  2.79826747253E-06
  2.85191137870E-06  2.90654849097E-06  2.96219719834E-06  3.01887623030E-06
  3.07660466310E-06  3.13540192619E-06  3.19528780873E-06  3.25628246631E-06
  3.31840642766E-06  3.38168060162E-06  3.44612628415E-06  3.51176516547E-06
  3.57861933745E-06  3.64671130092E-06  3.71606397336E-06  3.78670069653E-06
  3.85864524438E-06  3.93192183101E-06  4.00655511886E-06  4.08257022697E-06
  4.15999273947E-06  4.23884871416E-06  4.31916469131E-06  4.40096770257E-06
  4.48428528008E-06  4.56914546572E-06  4.65557682057E-06  4.74360843452E-06
  4.83326993604E-06  4.92459150216E-06  5.01760386865E-06  5.11233834033E-06
  5.20882680165E-06  5.30710172735E-06  5.40719619347E-06  5.50914388843E-06
  5.61297912439E-06  5.71873684879E-06  5.82645265612E-06  5.93616279988E-06
  6.04790420482E-06  6.16171447931E-06  6.27763192808E-06  6.39569556501E-06
  6.51594512636E-06  6.63842108407E-06  6.76316465942E-06  6.89021783690E-06
  7.01962337832E-06  7.15142483722E-06  7.28566657354E-06  7.42239376852E-06
  7.56165243992E-06  7.70348945752E-06  7.84795255888E-06  7.99509036541E-06
  8.14495239873E-06  8.29758909736E-06  8.45305183366E-06  8.61139293116E-06
  8.77266568212E-06  8.93692436552E-06  9.10422426529E-06  9.27462168895E-06
  9.44817398652E-06  9.62493956986E-06  9.80497793231E-06  9.98834966870E-06
  1.01751164958E-05  1.03653412730E-05  1.05590880236E-05  1.07564219561E-05
  1.09574094866E-05  1.11621182607E-05  1.13706171764E-05  1.15829764074E-05
  1.17992674268E-05  1.20195630307E-05  1.22439373633E-05  1.24724659414E-05
  1.27052256800E-05  1.29422949182E-05  1.31837534455E-05  1.34296825287E-05
  1.36801649392E-05  1.39352849810E-05  1.41951285189E-05  1.44597830075E-05
  1.47293375206E-05  1.50038827810E-05  1.52835111915E-05  1.55683168657E-05
  1.58583956594E-05  1.61538452034E-05  1.64547649362E-05  1.67612561370E-05
  1.70734219606E-05  1.73913674714E-05  1.77151996792E-05  1.80450275750E-05
  1.83809621677E-05  1.87231165216E-05  1.90716057943E-05  1.94265472756E-05
  1.97880604268E-05  2.01562669210E-05  2.05312906842E-05  2.09132579366E-05
  2.13022972356E-05  2.16985395188E-05  2.21021181479E-05  2.25131689538E-05
  2.29318302825E-05  2.33582430412E-05  2.37925507461E-05  2.42348995705E-05
  2.46854383941E-05  2.51443188531E-05  2.56116953911E-05  2.60877253115E-05
  2.65725688298E-05  2.70663891280E-05  2.75693524094E-05  2.80816279544E-05
  2.86033881778E-05  2.91348086864E-05  2.96760683385E-05  3.02273493038E-05
  3.07888371250E-05  3.13607207798E-05  3.19431927452E-05  3.25364490614E-05
  3.31406893986E-05  3.37561171237E-05  3.43829393689E-05  3.50213671015E-05
  3.56716151948E-05  3.63339025002E-05  3.70084519215E-05  3.76954904892E-05
  3.83952494374E-05  3.91079642812E-05  3.98338748966E-05  4.05732256005E-05
  4.13262652336E-05  4.20932472434E-05  4.28744297704E-05  4.36700757342E-05
  4.44804529225E-05  4.53058340809E-05  4.61464970049E-05  4.70027246333E-05
  4.78748051435E-05  4.87630320483E-05  4.96677042950E-05  5.05891263658E-05
  5.15276083803E-05  5.24834661999E-05  5.34570215341E-05  5.44486020489E-05
  5.54585414769E-05  5.64871797295E-05  5.75348630118E-05  5.86019439387E-05
  5.96887816536E-05  6.07957419494E-05  6.19231973918E-05  6.30715274441E-05
  6.42411185957E-05  6.54323644914E-05  6.66456660644E-05  6.78814316713E-05
  6.91400772289E-05  7.04220263551E-05  7.17277105107E-05  7.30575691449E-05
  7.44120498434E-05  7.57916084786E-05  7.71967093637E-05  7.86278254080E-05
  8.00854382771E-05  8.15700385544E-05  8.30821259062E-05  8.46222092501E-05
  8.61908069264E-05  8.77884468722E-05  8.94156667991E-05  9.10730143746E-05
  9.27610474060E-05  9.44803340284E-05  9.62314528956E-05  9.80149933753E-05
  9.98315557470E-05  1.01681751405E-04  1.03566203061E-04  1.05485544960E-04
  1.07440423087E-04  1.09431495388E-04  1.11459431990E-04  1.13524915430E-04
  1.15628640879E-04  1.17771316380E-04  1.19953663085E-04  1.22176415499E-04
  1.24440321726E-04  1.26746143720E-04  1.29094657542E-04  1.31486653624E-04
  1.33922937031E-04  1.36404327733E-04  1.38931660884E-04  1.41505787097E-04
  1.44127572739E-04  1.46797900212E-04  1.49517668259E-04  1.52287792263E-04
  1.55109204555E-04  1.57982854725E-04  1.60909709948E-04  1.63890755305E-04
  1.66926994115E-04  1.70019448275E-04  1.73169158598E-04  1.76377185173E-04
  1.79644607713E-04  1.82972525921E-04  1.86362059864E-04  1.89814350344E-04
  1.93330559285E-04  1.96911870125E-04  2.00559488212E-04  2.04274641213E-04
  2.08058579521E-04  2.11912576684E-04  2.15837929827E-04  2.19835960090E-04
  2.23908013078E-04  2.28055459304E-04  2.32279694661E-04  2.36582140882E-04
  2.40964246028E-04  2.45427484966E-04  2.49973359872E-04  2.54603400734E-04
  2.59319165869E-04  2.64122242444E-04  2.69014247012E-04  2.73996826057E-04
  2.79071656549E-04  2.84240446502E-04  2.89504935559E-04  2.94866895568E-04
  3.00328131184E-04  3.05890480476E-04  3.11555815543E-04  3.17326043145E-04
  3.23203105347E-04  3.29188980169E-04  3.35285682256E-04  3.41495263552E-04
  3.47819813992E-04  3.54261462208E-04  3.60822376240E-04  3.67504764271E-04
  3.74310875369E-04  3.81243000240E-04  3.88303472004E-04  3.95494666978E-04
  4.02819005476E-04  4.10278952623E-04  4.17877019186E-04  4.25615762418E-04
  4.33497786920E-04  4.41525745514E-04  4.49702340142E-04  4.58030322770E-04
  4.66512496315E-04  4.75151715592E-04  4.83950888270E-04  4.92912975855E-04
  5.02040994682E-04  5.11338016937E-04  5.20807171682E-04  5.30451645917E-04
  5.40274685646E-04  5.50279596973E-04  5.60469747214E-04  5.70848566031E-04
  5.81419546584E-04  5.92186246708E-04  6.03152290113E-04  6.14321367598E-04
  6.25697238299E-04  6.37283730951E-04  6.49084745176E-04  6.61104252797E-04
  6.73346299177E-04  6.85815004575E-04  6.98514565538E-04  7.11449256309E-04
  7.24623430269E-04  7.38041521402E-04  7.51708045784E-04  7.65627603107E-04
  7.79804878226E-04  7.94244642732E-04  8.08951756564E-04  8.23931169641E-04
  8.39187923528E-04  8.54727153134E-04  8.70554088441E-04  8.86674056261E-04
  9.03092482033E-04  9.19814891644E-04  9.36846913295E-04  9.54194279390E-04
  9.71862828467E-04  9.89858507165E-04  1.00818737222E-03  1.02685559252E-03
  1.04586945115E-03  1.06523534753E-03  1.08495979957E-03  1.10504944587E-03
  1.12551104791E-03  1.14635149239E-03  1.16757779349E-03  1.18919709527E-03
  1.21121667406E-03  1.23364394091E-03  1.25648644407E-03  1.27975187158E-03
  1.30344805378E-03  1.32758296601E-03  1.35216473127E-03  1.37720162295E-03
  1.40270206764E-03  1.42867464791E-03  1.45512810526E-03  1.48207134303E-03
  1.50951342942E-03  1.53746360050E-03  1.56593126335E-03  1.59492599924E-03
  1.62445756681E-03  1.65453590540E-03  1.68517113835E-03  1.71637357647E-03
  1.74815372142E-03  1.78052226935E-03  1.81349011441E-03  1.84706835247E-03
  1.88126828483E-03  1.91610142204E-03  1.95157948775E-03  1.98771442269E-03
  2.02451838866E-03  2.06200377263E-03  2.10018319092E-03  2.13906949344E-03
  2.17867576800E-03  2.21901534474E-03  2.26010180060E-03  2.30194896391E-03
  2.34457091899E-03  2.38798201098E-03  2.43219685057E-03  2.47723031900E-03
  2.52309757300E-03  2.56981404996E-03  2.61739547306E-03  2.66585785661E-03
  2.71521751141E-03  2.76549105026E-03  2.81669539353E-03  2.86884777489E-03
  2.92196574706E-03  2.97606718777E-03  3.03117030574E-03  3.08729364681E-03
  3.14445610023E-03  3.20267690493E-03  3.26197565608E-03  3.32237231164E-03
  3.38388719909E-03  3.44654102227E-03  3.51035486834E-03  3.57535021490E-03
  3.64154893718E-03  3.70897331544E-03  3.77764604246E-03  3.84759023117E-03
  3.91882942241E-03  3.99138759290E-03  4.06528916328E-03  4.14055900632E-03
  4.21722245532E-03  4.29530531260E-03  4.37483385823E-03  4.45583485883E-03
  4.53833557662E-03  4.62236377854E-03  4.70794774567E-03  4.79511628267E-03
  4.88389872755E-03  4.97432496148E-03  5.06642541889E-03  5.16023109767E-03
  5.25577356967E-03  5.35308499126E-03  5.45219811418E-03  5.55314629657E-03
  5.65596351419E-03  5.76068437184E-03  5.86734411505E-03  5.97597864187E-03