<PP_INFO>
Generated using APE Version-0.7.2
Author: Unknown Generation date: 2006/12/22
    2        The Pseudo was generated with a Full-Relativistic Calculation
  0.00000000000E+00    Local Potential cutoff radius
nl pn  l   occ               Rcut            Rcut US             E pseu
</PP_INFO>


<PP_HEADER>
   0                   Version Number
  Fe                   Element
   NC                  Norm - Conserving pseudopotential
    F                  Nonlinear Core Correction
 SLA  PW   GGX  GGC    PW91 Exchange-Correlation functional
   16.00000000000      Z valence
    0.00000000000      Total energy
    0.00000000000    0.Suggested cutoff for wfc and rho
    2                  Max angular momentum component
  900                  Number of points in mesh
    5    2             Number of Wavefunctions, Number of Projectors
 Wavefunctions         nl  l   occ
                       3s  0  2.00
                       4s  0  2.00
                       3p  1  6.00
                       4p  1  0.00
                       3d  2  6.00
</PP_HEADER>


<PP_MESH>
  <PP_R>
  1.00000000000E-07  2.01878367805E-07  3.05670386072E-07  4.11412000195E-07
  5.19139830754E-07  6.28891186200E-07  7.40704075772E-07  8.54617222665E-07
  9.70670077434E-07  1.08890283167E-06  1.20935643189E-06  1.33207259376E-06
  1.45709381650E-06  1.58446339764E-06  1.71422544799E-06  1.84642490692E-06
  1.98110755792E-06  2.11832004448E-06  2.25810988621E-06  2.40052549532E-06
  2.54561619339E-06  2.69343222841E-06  2.84402479225E-06  2.99744603833E-06
  3.15374909969E-06  3.31298810744E-06  3.47521820945E-06  3.64049558946E-06
  3.80887748657E-06  3.98042221502E-06  4.15518918443E-06  4.33323892032E-06
  4.51463308513E-06  4.69943449953E-06  4.88770716421E-06  5.07951628200E-06
  5.27492828051E-06  5.47401083509E-06  5.67683289228E-06  5.88346469369E-06
  6.09397780034E-06  6.30844511741E-06  6.52694091951E-06  6.74954087642E-06
  6.97632207925E-06  7.20736306719E-06  7.44274385466E-06  7.68254595906E-06
  7.92685242899E-06  8.17574787300E-06  8.42931848889E-06  8.68765209360E-06
  8.95083815357E-06  9.21896781576E-06  9.49213393920E-06  9.77043112715E-06
  1.00539557599E-05  1.03428060281E-05  1.06370819667E-05  1.09368854897E-05
  1.12423204257E-05  1.15534925532E-05  1.18705096377E-05  1.21934814690E-05
  1.25225198993E-05  1.28577388815E-05  1.31992545092E-05  1.35471850564E-05
  1.39016510191E-05  1.42627751562E-05  1.46306825329E-05  1.50055005633E-05
  1.53873590549E-05  1.57763902535E-05  1.61727288889E-05  1.65765122216E-05
  1.69878800904E-05  1.74069749608E-05  1.78339419744E-05  1.82689289989E-05
  1.87120866796E-05  1.91635684915E-05  1.96235307924E-05  2.00921328771E-05
  2.05695370324E-05  2.10559085938E-05  2.15514160019E-05  2.20562308617E-05
  2.25705280013E-05  2.30944855328E-05  2.36282849138E-05  2.41721110106E-05
  2.47261521617E-05  2.52906002434E-05  2.58656507362E-05  2.64515027923E-05
  2.70483593048E-05  2.76564269778E-05  2.82759163983E-05  2.89070421086E-05
  2.95500226810E-05  3.02050807936E-05  3.08724433068E-05  3.15523413426E-05
  3.22450103642E-05  3.29506902577E-05  3.36696254152E-05  3.44020648192E-05
  3.51482621291E-05  3.59084757691E-05  3.66829690173E-05  3.74720100974E-05
  3.82758722711E-05  3.90948339331E-05  3.99291787073E-05  4.07791955450E-05
  4.16451788255E-05  4.25274284570E-05  4.34262499816E-05  4.43419546803E-05
  4.52748596813E-05  4.62252880695E-05  4.71935689985E-05  4.81800378048E-05
  4.91850361236E-05  5.02089120072E-05  5.12520200457E-05  5.23147214899E-05
  5.33973843758E-05  5.45003836528E-05  5.56241013132E-05  5.67689265243E-05
  5.79352557636E-05  5.91234929558E-05  6.03340496129E-05  6.15673449765E-05
  6.28238061632E-05  6.41038683123E-05  6.54079747366E-05  6.67365770762E-05
  6.80901354544E-05  6.94691186375E-05  7.08740041966E-05  7.23052786738E-05
  7.37634377500E-05  7.52489864169E-05  7.67624391516E-05  7.83043200952E-05
  7.98751632341E-05  8.14755125848E-05  8.31059223825E-05  8.47669572728E-05
  8.64591925079E-05  8.81832141447E-05  8.99396192490E-05  9.17290161012E-05
  9.35520244078E-05  9.54092755156E-05  9.73014126302E-05  9.92290910392E-05
  1.01192978339E-04  1.03193754665E-04  1.05232112930E-04  1.07308759060E-04
  1.09424412243E-04  1.11579805174E-04  1.13775684311E-04  1.16012810136E-04
  1.18291957411E-04  1.20613915456E-04  1.22979488413E-04  1.25389495530E-04
  1.27844771445E-04  1.30346166473E-04  1.32894546900E-04  1.35490795284E-04
  1.38135810762E-04  1.40830509359E-04  1.43575824307E-04  1.46372706367E-04
  1.49222124159E-04  1.52125064498E-04  1.55082532733E-04  1.58095553100E-04
  1.61165169071E-04  1.64292443720E-04  1.67478460090E-04  1.70724321565E-04
  1.74031152257E-04  1.77400097393E-04  1.80832323709E-04  1.84329019859E-04
  1.87891396824E-04  1.91520688331E-04  1.95218151281E-04  1.98985066185E-04
  2.02822737606E-04  2.06732494611E-04  2.10715691233E-04  2.14773706938E-04
  2.18907947103E-04  2.23119843505E-04  2.27410854813E-04  2.31782467096E-04
  2.36236194336E-04  2.40773578955E-04  2.45396192346E-04  2.50105635419E-04
  2.54903539154E-04  2.59791565168E-04  2.64771406290E-04  2.69844787143E-04
  2.75013464749E-04  2.80279229132E-04  2.85643903937E-04  2.91109347066E-04
  2.96677451320E-04  3.02350145051E-04  3.08129392836E-04  3.14017196150E-04
  3.20015594065E-04  3.26126663956E-04  3.32352522217E-04  3.38695324995E-04
  3.45157268938E-04  3.51740591955E-04  3.58447573993E-04  3.65280537822E-04
  3.72241849844E-04  3.79333920909E-04  3.86559207155E-04  3.93920210851E-04
  4.01419481270E-04  4.09059615571E-04  4.16843259694E-04  4.24773109283E-04
  4.32851910614E-04  4.41082461548E-04  4.49467612501E-04  4.58010267430E-04
  4.66713384838E-04  4.75579978803E-04  4.84613120013E-04  4.93815936840E-04
  5.03191616416E-04  5.12743405738E-04  5.22474612795E-04  5.32388607713E-04
  5.42488823920E-04  5.52778759336E-04  5.63261977587E-04  5.73942109234E-04
  5.84822853035E-04  5.95907977225E-04  6.07201320819E-04  6.18706794943E-04
  6.30428384189E-04  6.42370147993E-04  6.54536222044E-04  6.66930819714E-04
  6.79558233515E-04  6.92422836593E-04  7.05529084232E-04  7.18881515408E-04
  7.32484754352E-04  7.46343512157E-04  7.60462588407E-04  7.74846872840E-04
  7.89501347040E-04  8.04431086166E-04  8.19641260705E-04  8.35137138266E-04
  8.50924085401E-04  8.67007569470E-04  8.83393160525E-04  9.00086533247E-04
  9.17093468908E-04  9.34419857373E-04  9.52071699141E-04  9.70055107422E-04
  9.88376310254E-04  1.00704165266E-03  1.02605759885E-03  1.04543073445E-03
  1.06516776880E-03  1.08527553724E-03  1.10576100353E-03  1.12663126223E-03
  1.14789354114E-03  1.16955520386E-03  1.19162375227E-03  1.21410682920E-03
  1.23701222100E-03  1.26034786031E-03  1.28412182875E-03  1.30834235976E-03
  1.33301784143E-03  1.35815681941E-03  1.38376799985E-03  1.40986025246E-03
  1.43644261354E-03  1.46352428914E-03  1.49111465821E-03  1.51922327589E-03
  1.54785987680E-03  1.57703437839E-03  1.60675688444E-03  1.63703768847E-03
  1.66788727737E-03  1.69931633502E-03  1.73133574596E-03  1.76395659922E-03
  1.79719019208E-03  1.83104803405E-03  1.86554185082E-03  1.90068358834E-03
  1.93648541695E-03  1.97295973558E-03  2.01011917606E-03  2.04797660752E-03
  2.08654514077E-03  2.12583813294E-03  2.16586919203E-03  2.20665218163E-03
  2.24820122579E-03  2.29053071382E-03  2.33365530532E-03  2.37758993526E-03
  2.42234981915E-03  2.46795045828E-03  2.51440764515E-03  2.56173746885E-03
  2.60995632072E-03  2.65908089998E-03  2.70912821953E-03  2.76011561181E-03
  2.81206073485E-03  2.86498157836E-03  2.91889646996E-03  2.97382408153E-03
  3.02978343566E-03  3.08679391229E-03  3.14487525536E-03  3.20404757967E-03
  3.26433137788E-03  3.32574752754E-03  3.38831729839E-03  3.45206235966E-03
  3.51700478765E-03  3.58316707329E-03  3.65057213001E-03  3.71924330161E-03
  3.78920437040E-03  3.86047956537E-03  3.93309357066E-03  4.00707153404E-03
  4.08243907568E-03  4.15922229695E-03  4.23744778953E-03  4.31714264458E-03
  4.39833446213E-03  4.48105136064E-03  4.56532198674E-03  4.65117552515E-03
  4.73864170878E-03  4.82775082905E-03  4.91853374635E-03  5.01102190074E-03
  5.10524732284E-03  5.20124264494E-03  5.29904111226E-03  5.39867659451E-03
  5.50018359757E-03  5.60359727551E-03  5.70895344267E-03  5.81628858616E-03
  5.92563987843E-03  6.03704519017E-03  6.15054310342E-03  6.26617292493E-03
  6.38397469978E-03  6.50398922525E-03  6.62625806492E-03  6.75082356311E-03
  6.87772885952E-03  7.00701790416E-03  7.13873547259E-03  7.27292718141E-03
  7.40963950410E-03  7.54891978704E-03  7.69081626597E-03  7.83537808268E-03
  7.98265530202E-03  8.13269892922E-03  8.28556092762E-03  8.44129423658E-03
  8.59995278987E-03  8.76159153436E-03  8.92626644898E-03  9.09403456418E-03
  9.26495398164E-03  9.43908389441E-03  9.61648460741E-03  9.79721755828E-03
  9.98134533872E-03  1.01689317161E-02  1.03600416556E-02  1.05547413427E-02
  1.07530982060E-02  1.09551809408E-02  1.11610595326E-02  1.13708052816E-02
  1.15844908272E-02  1.18021901733E-02  1.20239787139E-02  1.22499332590E-02
  1.24801320615E-02  1.27146548442E-02  1.29535828274E-02  1.31969987568E-02
  1.34449869328E-02  1.36976332387E-02  1.39550251716E-02  1.42172518717E-02
  1.44844041536E-02  1.47565745380E-02  1.50338572833E-02  1.53163484185E-02
  1.56041457761E-02  1.58973490267E-02  1.61960597127E-02  1.65003812841E-02
  1.68104191339E-02  1.71262806348E-02  1.74480751766E-02  1.77759142033E-02
  1.81099112528E-02  1.84501819954E-02  1.87968442740E-02  1.91500181453E-02
  1.95098259209E-02  1.98763922098E-02  2.02498439620E-02  2.06303105116E-02
  2.10179236224E-02  2.14128175331E-02  2.18151290038E-02  2.22249973638E-02
  2.26425645590E-02  2.30679752020E-02  2.35013766215E-02  2.39429189138E-02
  2.43927549943E-02  2.48510406510E-02  2.53179345979E-02  2.57935985304E-02
  2.62781971810E-02  2.67718983767E-02  2.72748730967E-02  2.77872955319E-02
  2.83093431451E-02  2.88411967327E-02  2.93830404868E-02  2.99350620595E-02
  3.04974526278E-02  3.10704069594E-02  3.16541234807E-02  3.22488043453E-02
  3.28546555037E-02  3.34718867753E-02  3.41007119203E-02  3.47413487144E-02
  3.53940190238E-02  3.60589488822E-02  3.67363685689E-02  3.74265126890E-02
  3.81296202540E-02  3.88459347652E-02  3.95757042975E-02  4.03191815858E-02
  4.10766241121E-02  4.18482941950E-02  4.26344590802E-02  4.34353910336E-02
  4.42513674349E-02  4.50826708742E-02  4.59295892497E-02  4.67924158673E-02
  4.76714495423E-02  4.85669947029E-02  4.94793614954E-02  5.04088658921E-02
  5.13558298001E-02  5.23205811732E-02  5.33034541255E-02  5.43047890470E-02
  5.53249327212E-02  5.63642384458E-02  5.74230661545E-02  5.85017825420E-02
  5.96007611909E-02  6.07203827008E-02  6.18610348208E-02  6.30231125829E-02
  6.42070184396E-02  6.54131624028E-02  6.66419621859E-02  6.78938433484E-02
  6.91692394437E-02  7.04685921687E-02  7.17923515168E-02  7.31409759345E-02
  7.45149324790E-02  7.59146969808E-02  7.73407542085E-02  7.87935980360E-02
  8.02737316142E-02  8.17816675450E-02  8.33179280588E-02  8.48830451956E-02
  8.64775609888E-02  8.81020276533E-02  8.97570077766E-02  9.14430745137E-02
  9.31608117857E-02  9.49108144815E-02  9.66936886645E-02  9.85100517822E-02
  1.00360532880E-01  1.02245772819E-01  1.04166424498E-01  1.06123153080E-01
  1.08116636221E-01  1.10147564308E-01  1.12216640695E-01  1.14324581946E-01
  1.16472118087E-01  1.18659992855E-01  1.20888963959E-01  1.23159803338E-01
  1.25473297433E-01  1.27830247456E-01  1.30231469670E-01  1.32677795669E-01
  1.35170072667E-01  1.37709163795E-01  1.40295948393E-01  1.42931322320E-01
  1.45616198262E-01  1.48351506049E-01  1.51138192978E-01  1.53977224136E-01
  1.56869582742E-01  1.59816270481E-01  1.62818307853E-01  1.65876734529E-01
  1.68992609707E-01  1.72167012481E-01  1.75401042215E-01  1.78695818923E-01
  1.82052483655E-01  1.85472198897E-01  1.88956148969E-01  1.92505540437E-01
  1.96121602532E-01  1.99805587574E-01  2.03558771404E-01  2.07382453831E-01
  2.11277959078E-01  2.15246636241E-01  2.19289859758E-01  2.23409029884E-01
  2.27605573176E-01  2.31880942986E-01  2.36236619966E-01  2.40674112580E-01
  2.45194957626E-01  2.49800720771E-01  2.54492997087E-01  2.59273411611E-01
  2.64143619903E-01  2.69105308619E-01  2.74160196099E-01  2.79310032958E-01
  2.84556602694E-01  2.89901722307E-01  2.95347242926E-01  3.00895050451E-01
  3.06547066207E-01  3.12305247607E-01  3.18171588832E-01  3.24148121523E-01
  3.30236915479E-01  3.36440079381E-01  3.42759761516E-01  3.49198150527E-01
  3.55757476163E-01  3.62440010060E-01  3.69248066523E-01  3.76184003327E-01
  3.83250222534E-01  3.90449171328E-01  3.97783342859E-01  4.05255277106E-01
  4.12867561761E-01  4.20622833120E-01  4.28523776999E-01  4.36573129665E-01
  4.44773678780E-01  4.53128264369E-01  4.61639779803E-01  4.70311172804E-01
  4.79145446459E-01  4.88145660266E-01  4.97314931192E-01  5.06656434751E-01
  5.16173406105E-01  5.25869141185E-01  5.35746997832E-01  5.45810396957E-01
  5.56062823732E-01  5.66507828791E-01  5.77149029462E-01  5.87990111020E-01
  5.99034827964E-01  6.10287005316E-01  6.21750539944E-01  6.33429401916E-01
  6.45327635872E-01  6.57449362423E-01  6.69798779583E-01  6.82380164220E-01
  6.95197873535E-01  7.08256346575E-01  7.21560105769E-01  7.35113758492E-01
  7.48921998664E-01  7.62989608375E-01  7.77321459537E-01  7.91922515577E-01
  8.06797833153E-01  8.21952563905E-01  8.37391956241E-01  8.53121357152E-01
  8.69146214066E-01  8.85472076732E-01  9.02104599147E-01  9.19049541508E-01
  9.36312772212E-01  9.53900269882E-01  9.71818125447E-01  9.90072544242E-01
  1.00866984816E+00  1.02761647785E+00  1.04691899494E+00  1.06658408429E+00
  1.08661855634E+00  1.10702934947E+00  1.12782353237E+00  1.14900830650E+00
  1.17059100861E+00  1.19257911325E+00  1.21498023537E+00  1.23780213295E+00
  1.26105270971E+00  1.28474001782E+00  1.30887226070E+00  1.33345779585E+00
  1.35850513779E+00  1.38402296093E+00  1.41002010265E+00  1.43650556631E+00
  1.46348852439E+00  1.49097832166E+00  1.51898447844E+00  1.54751669386E+00
  1.57658484922E+00  1.60619901145E+00  1.63636943657E+00  1.66710657324E+00
  1.69842106640E+00  1.73032376091E+00  1.76282570536E+00  1.79593815587E+00
  1.82967258000E+00  1.86404066069E+00  1.89905430033E+00  1.93472562492E+00
  1.97106698818E+00  2.00809097591E+00  2.04581041030E+00  2.08423835441E+00
  2.12338811664E+00  2.16327325541E+00  2.20390758378E+00  2.24530517430E+00
  2.28748036382E+00  2.33044775853E+00  2.37422223895E+00  2.41881896511E+00
  2.46425338182E+00  2.51054122399E+00  2.55769852208E+00  2.60574160768E+00
  2.65468711913E+00  2.70455200731E+00  2.75535354150E+00  2.80710931534E+00
  2.85983725298E+00  2.91355561523E+00  2.96828300590E+00  3.02403837825E+00
  3.08084104157E+00  3.13871066783E+00  3.19766729852E+00  3.25773135158E+00
  3.31892362847E+00  3.38126532140E+00  3.44477802061E+00  3.50948372191E+00
  3.57540483428E+00  3.64256418760E+00  3.71098504059E+00  3.78069108885E+00
  3.85170647309E+00  3.92405578744E+00  3.99776408801E+00  4.07285690158E+00
  4.14936023437E+00  4.22730058115E+00  4.30670493430E+00  4.38760079326E+00
  4.47001617399E+00  4.55397961869E+00  4.63952020571E+00  4.72666755958E+00
  4.81545186129E+00  4.90590385873E+00  4.99805487738E+00  5.09193683109E+00
  5.18758223320E+00  5.28502420774E+00  5.38429650097E+00  5.48543349299E+00
  5.58847020971E+00  5.69344233494E+00  5.80038622277E+00  5.90933891017E+00
  6.02033812977E+00  6.13342232297E+00  6.24863065326E+00  6.36600301972E+00
  6.48558007094E+00  6.60740321898E+00  6.73151465382E+00  6.85795735789E+00
  6.98677512101E+00  7.11801255551E+00  7.25171511174E+00  7.38792909373E+00
  7.52670167531E+00  7.66808091639E+00  7.81211577961E+00  7.95885614734E+00
  8.10835283889E+00  8.26065762816E+00  8.41582326156E+00  8.57390347626E+00
  8.73495301882E+00  8.89902766414E+00  9.06618423478E+00  9.23648062062E+00
  9.40997579895E+00  9.58672985485E+00  9.76680400203E+00  9.95026060402E+00
  1.01371631958E+01  1.03275765056E+01  1.05215664778E+01  1.07192002951E+01
  1.09205464024E+01  1.11256745302E+01  1.13346557187E+01  1.15475623426E+01
  1.17644681360E+01  1.19854482179E+01  1.22105791186E+01  1.24399388056E+01
  1.26736067111E+01  1.29116637593E+01  1.31541923945E+01  1.34012766095E+01
  1.36530019749E+01  1.39094556684E+01  1.41707265056E+01  1.44369049701E+01
  1.47080832451E+01  1.49843552456E+01  1.52658166504E+01  1.55525649356E+01
  1.58446994082E+01  1.61423212408E+01  1.64455335060E+01  1.67544412128E+01
  1.70691513425E+01  1.73897728860E+01  1.77164168813E+01  1.80491964523E+01
  1.83882268475E+01  1.87336254806E+01  1.90855119704E+01  1.94440081828E+01
  1.98092382726E+01  2.01813287268E+01  2.05604084083E+01  2.09466086005E+01
  2.13400630527E+01  2.17409080267E+01  2.21492823437E+01  2.25653274324E+01
  2.29891873781E+01  2.34210089725E+01  2.38609417647E+01  2.43091381129E+01
  2.47657532370E+01  2.52309452725E+01  2.57048753255E+01  2.61877075280E+01
  2.66796090952E+01  2.71807503831E+01  2.76913049475E+01  2.82114496045E+01
  2.87413644913E+01  2.92812331288E+01  2.98312424849E+01  3.03915830397E+01
  3.09624488510E+01  3.15440376220E+01  3.21365507692E+01  3.27401934926E+01
  3.33551748466E+01  3.39817078123E+01  3.46200093716E+01  3.52703005818E+01
  3.59328066528E+01  3.66077570246E+01  3.72953854468E+01  3.79959300599E+01
  3.87096334775E+01  3.94367428703E+01  4.01775100519E+01  4.09321915657E+01
  4.17010487741E+01  4.24843479488E+01  4.32823603630E+01  4.40953623855E+01
  4.49236355762E+01  4.57674667838E+01  4.66271482452E+01  4.75029776864E+01
  4.83952584259E+01  4.93042994795E+01  5.02304156676E+01  5.11739277240E+01
  5.21351624071E+01  5.31144526130E+01  5.41121374909E+01  5.51285625604E+01
  5.61640798311E+01  5.72190479248E+01  5.82938321996E+01  5.93888048761E+01
  6.05043451669E+01  6.16408394074E+01  6.27986811898E+01  6.39782714994E+01
  6.51800188537E+01  6.64043394434E+01  6.76516572769E+01  6.89224043270E+01
  7.02170206805E+01  7.15359546909E+01  7.28796631331E+01  7.42486113620E+01
  7.56432734738E+01  7.70641324697E+01  7.85116804235E+01  7.99864186520E+01
  8.14888578886E+01  8.30195184602E+01  8.45789304671E+01  8.61676339671E+01
  8.77861791622E+01  8.94351265892E+01  9.11150473137E+01  9.28265231283E+01
  9.45701467536E+01  9.63465220437E+01  9.81562641954E+01  9.99999999610E+01
  </PP_R>
  <PP_RAB>
  1.86094432388E-09  3.75684402682E-09  5.68835569940E-09  7.65614826539E-09
  9.66090321342E-09  1.17033148330E-08  1.37840904548E-08  1.59039506961E-08
  1.80636297096E-08  2.02638754384E-08  2.25054498747E-08  2.47891293235E-08
  2.71157046718E-08  2.94859816624E-08  3.19007811730E-08  3.43609395001E-08
  3.68673086491E-08  3.94207566294E-08  4.20221677544E-08  4.46724429485E-08
  4.73725000586E-08  5.01232741722E-08  5.29257179411E-08  5.57808019116E-08
  5.86895148602E-08  6.16528641363E-08  6.46718760112E-08  6.77475960332E-08
  7.08810893899E-08  7.40734412770E-08  7.73257572741E-08  8.06391637279E-08
  8.40148081418E-08  8.74538595736E-08  9.09575090402E-08  9.45269699305E-08
  9.81634784249E-08  1.01868293924E-07  1.05642699485E-07  1.09488002265E-07
  1.13405533974E-07  1.17396651338E-07  1.21462736565E-07  1.25605197828E-07
  1.29825469749E-07  1.34125013900E-07  1.38505319304E-07  1.42967902955E-07
  1.47514310340E-07  1.52146115977E-07  1.56864923961E-07  1.61672368514E-07
  1.66570114559E-07  1.71559858288E-07  1.76643327757E-07  1.81822283479E-07
  1.87098519039E-07  1.92473861709E-07  1.97950173085E-07  2.03529349731E-07
  2.09213323835E-07  2.15004063878E-07  2.20903575318E-07  2.26913901281E-07
  2.33037123273E-07  2.39275361895E-07  2.45630777583E-07  2.52105571353E-07
  2.58701985565E-07  2.65422304697E-07  2.72268856141E-07  2.79244011003E-07
  2.86350184928E-07  2.93589838936E-07  3.00965480274E-07  3.08479663285E-07
  3.16134990290E-07  3.23934112493E-07  3.31879730896E-07  3.39974597238E-07
  3.48221514943E-07  3.56623340095E-07  3.65182982426E-07  3.73903406322E-07
  3.82787631853E-07  3.91838735817E-07  4.01059852804E-07  4.10454176283E-07
  4.20024959710E-07  4.29775517651E-07  4.39709226934E-07  4.49829527814E-07
  4.60139925167E-07  4.70643989705E-07  4.81345359210E-07  4.92247739794E-07
  5.03354907185E-07  5.14670708032E-07  5.26199061239E-07  5.37943959321E-07
  5.49909469788E-07  5.62099736551E-07  5.74518981361E-07  5.87171505266E-07
  6.00061690107E-07  6.13194000031E-07  6.26572983036E-07  6.40203272550E-07
  6.54089589034E-07  6.68236741617E-07  6.82649629759E-07  6.97333244952E-07
  7.12292672445E-07  7.27533093008E-07  7.43059784725E-07  7.58878124820E-07
  7.74993591522E-07  7.91411765963E-07  8.08138334107E-07  8.25179088721E-07
  8.42539931384E-07  8.60226874527E-07  8.78246043515E-07  8.96603678772E-07
  9.15306137940E-07  9.34359898080E-07  9.53771557915E-07  9.73547840120E-07
  9.93695593642E-07  1.01422179608E-06  1.03513355610E-06  1.05643811588E-06
  1.07814285366E-06  1.10025528624E-06  1.12278307164E-06  1.14573401170E-06
  1.16911605484E-06  1.19293729874E-06  1.21720599323E-06  1.24193054305E-06
  1.26711951086E-06  1.29278162013E-06  1.31892575820E-06  1.34556097935E-06
  1.37269650791E-06  1.40034174150E-06  1.42850625426E-06  1.45719980017E-06
  1.48643231640E-06  1.51621392680E-06  1.54655494538E-06  1.57746587990E-06
  1.60895743545E-06  1.64104051824E-06  1.67372623933E-06  1.70702591849E-06
  1.74095108809E-06  1.77551349716E-06  1.81072511540E-06  1.84659813733E-06
  1.88314498656E-06  1.92037832004E-06  1.95831103247E-06  1.99695626076E-06
  2.03632738857E-06  2.07643805098E-06  2.11730213915E-06  2.15893380520E-06
  2.20134746706E-06  2.24455781349E-06  2.28857980915E-06  2.33342869981E-06
  2.37912001759E-06  2.42566958638E-06  2.47309352728E-06  2.52140826421E-06
  2.57063052962E-06  2.62077737020E-06  2.67186615290E-06  2.72391457084E-06
  2.77694064951E-06  2.83096275297E-06  2.88599959023E-06  2.94207022172E-06
  2.99919406590E-06  3.05739090598E-06  3.11668089676E-06  3.17708457165E-06
  3.23862284971E-06  3.30131704298E-06  3.36518886380E-06  3.43026043233E-06
  3.49655428425E-06  3.56409337855E-06  3.63290110545E-06  3.70300129454E-06
  3.77441822301E-06  3.84717662408E-06  3.92130169553E-06  3.99681910845E-06
  4.07375501615E-06  4.15213606316E-06  4.23198939453E-06  4.31334266517E-06
  4.39622404945E-06  4.48066225097E-06  4.56668651249E-06  4.65432662603E-06
  4.74361294326E-06  4.83457638592E-06  4.92724845660E-06  5.02166124963E-06
  5.11784746216E-06  5.21584040554E-06  5.31567401682E-06  5.41738287052E-06
  5.52100219057E-06  5.62656786258E-06  5.73411644618E-06  5.84368518775E-06
  5.95531203329E-06  6.06903564156E-06  6.18489539747E-06  6.30293142574E-06
  6.42318460476E-06  6.54569658078E-06  6.67050978231E-06  6.79766743484E-06
  6.92721357578E-06  7.05919306972E-06  7.19365162398E-06  7.33063580444E-06
  7.47019305165E-06  7.61237169725E-06  7.75722098076E-06  7.90479106658E-06
  8.05513306138E-06  8.20829903181E-06  8.36434202252E-06  8.52331607452E-06
  8.68527624394E-06  8.85027862104E-06  9.01838034967E-06  9.18963964704E-06
  9.36411582393E-06  9.54186930515E-06  9.72296165053E-06  9.90745557623E-06
  1.00954149764E-05  1.02869049455E-05  1.04819918005E-05  1.06807431041E-05
  1.08832276883E-05  1.10895156777E-05  1.12996785143E-05  1.15137889819E-05
  1.17319212317E-05  1.19541508074E-05  1.21805546719E-05  1.24112112337E-05
  1.26462003741E-05  1.28856034748E-05  1.31295034463E-05  1.33779847564E-05
  1.36311334594E-05  1.38890372261E-05  1.41517853742E-05  1.44194688989E-05
  1.46921805047E-05  1.49700146375E-05  1.52530675173E-05  1.55414371712E-05
  1.58352234678E-05  1.61345281517E-05  1.64394548783E-05  1.67501092505E-05
  1.70665988543E-05  1.73890332970E-05  1.77175242444E-05  1.80521854601E-05
  1.83931328443E-05  1.87404844743E-05  1.90943606456E-05  1.94548839129E-05
  1.98221791332E-05  2.01963735087E-05  2.05775966309E-05  2.09659805254E-05
  2.13616596980E-05  2.17647711808E-05  2.21754545799E-05  2.25938521238E-05
  2.30201087124E-05  2.34543719675E-05  2.38967922838E-05  2.43475228809E-05
  2.48067198565E-05  2.52745422401E-05  2.57511520489E-05  2.62367143428E-05
  2.67313972825E-05  2.72353721873E-05  2.77488135945E-05  2.82718993197E-05
  2.88048105189E-05  2.93477317504E-05  2.99008510395E-05  3.04643599433E-05
  3.10384536169E-05  3.16233308812E-05  3.22191942918E-05  3.28262502089E-05
  3.34447088688E-05  3.40747844572E-05  3.47166951825E-05  3.53706633522E-05
  3.60369154495E-05  3.67156822117E-05  3.74071987102E-05  3.81117044320E-05
  3.88294433624E-05  3.95606640699E-05  4.03056197917E-05  4.10645685219E-05
  4.18377731008E-05  4.26255013055E-05  4.34280259432E-05  4.42456249454E-05
  4.50785814640E-05  4.59271839696E-05  4.67917263516E-05  4.76725080193E-05
  4.85698340062E-05  4.94840150756E-05  5.04153678280E-05  5.13642148105E-05
  5.23308846293E-05  5.33157120628E-05  5.43190381777E-05  5.53412104474E-05
  5.63825828718E-05  5.74435161007E-05  5.85243775577E-05  5.96255415684E-05
  6.07473894893E-05  6.18903098404E-05  6.30546984394E-05  6.42409585390E-05
  6.54495009664E-05  6.66807442656E-05  6.79351148426E-05  6.92130471127E-05
  7.05149836511E-05  7.18413753463E-05  7.31926815561E-05  7.45693702666E-05
  7.59719182547E-05  7.74008112527E-05  7.88565441167E-05  8.03396209981E-05
  8.18505555182E-05  8.33898709459E-05  8.49581003790E-05  8.65557869289E-05
  8.81834839086E-05  8.98417550243E-05  9.15311745708E-05  9.32523276302E-05
  9.50058102745E-05  9.67922297722E-05  9.86122047987E-05  1.00466365650E-04
  1.02355354462E-04  1.04279825432E-04  1.06240445044E-04  1.08237892305E-04
  1.10272858971E-04  1.12346049797E-04  1.14458182771E-04  1.16609989371E-04
  1.18802214814E-04  1.21035618313E-04  1.23310973345E-04  1.25629067913E-04
  1.27990704823E-04  1.30396701961E-04  1.32847892574E-04  1.35345125562E-04
  1.37889265772E-04  1.40481194291E-04  1.43121808762E-04  1.45812023684E-04
  1.48552770738E-04  1.51344999102E-04  1.54189675784E-04  1.57087785958E-04
  1.60040333300E-04  1.63048340340E-04  1.66112848817E-04  1.69234920034E-04
  1.72415635231E-04  1.75656095959E-04  1.78957424458E-04  1.82320764049E-04
  1.85747279528E-04  1.89238157570E-04  1.92794607142E-04  1.96417859917E-04
  2.00109170706E-04  2.03869817889E-04  2.07701103857E-04  2.11604355468E-04
  2.15580924500E-04  2.19632188125E-04  2.23759549381E-04  2.27964437662E-04
  2.32248309211E-04  2.36612647624E-04  2.41058964365E-04  2.45588799288E-04
  2.50203721172E-04  2.54905328262E-04  2.59695248827E-04  2.64575141717E-04
  2.69546696945E-04  2.74611636265E-04  2.79771713775E-04  2.85028716519E-04
  2.90384465111E-04  2.95840814359E-04  3.01399653916E-04  3.07062908925E-04
  3.12832540693E-04  3.18710547366E-04  3.24698964624E-04  3.30799866385E-04
  3.37015365519E-04  3.43347614589E-04  3.49798806586E-04  3.56371175697E-04
  3.63066998073E-04  3.69888592621E-04  3.76838321805E-04  3.83918592465E-04
  3.91131856649E-04  3.98480612465E-04  4.05967404944E-04  4.13594826923E-04
  4.21365519941E-04  4.29282175155E-04  4.37347534272E-04  4.45564390498E-04
  4.53935589505E-04  4.62464030420E-04  4.71152666823E-04  4.80004507775E-04
  4.89022618858E-04  4.98210123236E-04  5.07570202738E-04  5.17106098960E-04
  5.26821114387E-04  5.36718613536E-04  5.46802024123E-04  5.57074838247E-04
  5.67540613605E-04  5.78202974718E-04  5.89065614189E-04  6.00132293983E-04
  6.11406846727E-04  6.22893177040E-04  6.34595262884E-04  6.46517156940E-04
  6.58662988017E-04  6.71036962474E-04  6.83643365684E-04  6.96486563513E-04
  7.09571003835E-04  7.22901218071E-04  7.36481822761E-04  7.50317521156E-04
  7.64413104856E-04  7.78773455462E-04  7.93403546270E-04  8.08308443995E-04
  8.23493310519E-04  8.38963404688E-04  8.54724084125E-04  8.70780807090E-04
  8.87139134370E-04  9.03804731203E-04  9.20783369242E-04  9.38080928551E-04
  9.55703399646E-04  9.73656885564E-04  9.91947603982E-04  1.01058188937E-03
  1.02956619517E-03  1.04890709606E-03  1.06861129020E-03  1.08868560158E-03
  1.10913698237E-03  1.12997251531E-03  1.15119941619E-03  1.17282503635E-03
  1.19485686519E-03  1.21730253281E-03  1.24016981262E-03  1.26346662406E-03
  1.28720103530E-03  1.31138126608E-03  1.33601569053E-03  1.36111284008E-03
  1.38668140641E-03  1.41273024446E-03  1.43926837549E-03  1.46630499023E-03
  1.49384945204E-03  1.52191130015E-03  1.55050025299E-03  1.57962621150E-03
  1.60929926265E-03  1.63952968284E-03  1.67032794150E-03  1.70170470475E-03
  1.73367083901E-03  1.76623741484E-03  1.79941571075E-03  1.83321721709E-03
  1.86765364005E-03  1.90273690568E-03  1.93847916408E-03  1.97489279356E-03
  2.01199040493E-03  2.04978484589E-03  2.08828920545E-03  2.12751681852E-03
  2.16748127043E-03  2.20819640175E-03  2.24967631298E-03  2.29193536952E-03
  2.33498820656E-03  2.37884973424E-03  2.42353514273E-03  2.46905990755E-03
  2.51543979489E-03  2.56269086710E-03  2.61082948825E-03  2.65987232975E-03
  2.70983637620E-03  2.76073893122E-03  2.81259762343E-03  2.86543041263E-03
  2.91925559593E-03  2.97409181415E-03  3.02995805823E-03  3.08687367586E-03
  3.14485837812E-03  3.20393224637E-03  3.26411573913E-03  3.32542969925E-03
  3.38789536106E-03  3.45153435774E-03  3.51636872885E-03  3.58242092792E-03
  3.64971383023E-03  3.71827074075E-03  3.78811540220E-03  3.85927200329E-03
  3.93176518707E-03  4.00562005947E-03  4.08086219802E-03  4.15751766067E-03
  4.23561299485E-03  4.31517524665E-03  4.39623197018E-03  4.47881123710E-03
  4.56294164638E-03  4.64865233419E-03  4.73597298397E-03  4.82493383671E-03
  4.91556570148E-03  5.00789996601E-03  5.10196860764E-03  5.19780420435E-03
  5.29543994606E-03  5.39490964610E-03  5.49624775297E-03  5.59948936221E-03
  5.70467022860E-03  5.81182677852E-03  5.92099612257E-03  6.03221606844E-03
  6.14552513397E-03  6.26096256050E-03  6.37856832649E-03  6.49838316132E-03
  6.62044855944E-03  6.74480679469E-03  6.87150093500E-03  7.00057485726E-03