<PP_INFO>
Generated using APE Version-0.7.3
Author: Unknown Generation date: 2007/08/30
    2        The Pseudo was generated with a Full-Relativistic Calculation
  0.00000000000E+00    Local Potential cutoff radius
nl pn  l   occ               Rcut            Rcut US             E pseu
</PP_INFO>


<PP_HEADER>
   0                   Version Number
  Xe                   Element
   NC                  Norm - Conserving pseudopotential
    F                  Nonlinear Core Correction
 SLA  PW   GGX  GGC    PW91 Exchange-Correlation functional
    8.00000000000      Z valence
    0.00000000000      Total energy
    0.00000000000    0.Suggested cutoff for wfc and rho
    2                  Max angular momentum component
 1200                  Number of points in mesh
    3    4             Number of Wavefunctions, Number of Projectors
 Wavefunctions         nl  l   occ
                       5s  0  2.00
                       5p  1  6.00
                       5d  2  0.00
</PP_HEADER>


<PP_MESH>
  <PP_R>
  1.00000000000E-07  1.01758874449E-07  1.03548685292E-07  1.05369976660E-07
  1.07223302256E-07  1.09109225523E-07  1.11028319813E-07  1.12981168561E-07
  1.14968365468E-07  1.16990514673E-07  1.19048230943E-07  1.21142139859E-07
  1.23272878005E-07  1.25441093159E-07  1.27647444495E-07  1.29892602781E-07
  1.32177250583E-07  1.34502082471E-07  1.36867805233E-07  1.39275138089E-07
  1.41724812907E-07  1.44217574429E-07  1.46754180497E-07  1.49335402281E-07
  1.51962024515E-07  1.54634845737E-07  1.57354678528E-07  1.60122349764E-07
  1.62938700861E-07  1.65804588038E-07  1.68720882573E-07  1.71688471067E-07
  1.74708255717E-07  1.77781154587E-07  1.80908101891E-07  1.84090048272E-07
  1.87327961094E-07  1.90622824738E-07  1.93975640897E-07  1.97387428882E-07
  2.00859225935E-07  2.04392087539E-07  2.07987087743E-07  2.11645319487E-07
  2.15367894934E-07  2.19155945810E-07  2.23010623744E-07  2.26933100625E-07
  2.30924568948E-07  2.34986242188E-07  2.39119355161E-07  2.43325164402E-07
  2.47604948548E-07  2.51960008723E-07  2.56391668938E-07  2.60901276493E-07
  2.65490202383E-07  2.70159841718E-07  2.74911614146E-07  2.79746964285E-07
  2.84667362162E-07  2.89674303661E-07  2.94769310974E-07  2.99953933068E-07
  3.05229746157E-07  3.10598354173E-07  3.16061389264E-07  3.21620512284E-07
  3.27277413298E-07  3.33033812098E-07  3.38891458727E-07  3.44852134005E-07
  3.50917650077E-07  3.57089850962E-07  3.63370613111E-07  3.69761845981E-07
  3.76265492613E-07  3.82883530224E-07  3.89617970807E-07  3.96470861745E-07
  4.03444286431E-07  4.10540364902E-07  4.17761254484E-07  4.25109150448E-07
  4.32586286676E-07  4.40194936344E-07  4.47937412606E-07  4.55816069304E-07
  4.63833301683E-07  4.71991547113E-07  4.80293285838E-07  4.88741041723E-07
  4.97337383029E-07  5.06084923186E-07  5.14986321591E-07  5.24044284418E-07
  5.33261565439E-07  5.42640966861E-07  5.52185340178E-07  5.61897587039E-07
  5.71780660128E-07  5.81837564065E-07  5.92071356315E-07  6.02485148122E-07
  6.13082105453E-07  6.23865449958E-07  6.34838459955E-07  6.46004471421E-07
  6.57366879009E-07  6.68929137082E-07  6.80694760757E-07  6.92667326981E-07
  7.04850475614E-07  7.17247910534E-07  7.29863400770E-07  7.42700781641E-07
  7.55763955923E-07  7.69056895040E-07  7.82583640267E-07  7.96348303959E-07
  8.10355070804E-07  8.24608199092E-07  8.39112022012E-07  8.53870948968E-07
  8.68889466918E-07  8.84172141744E-07  8.99723619632E-07  9.15548628491E-07
  9.31651979388E-07  9.48038568009E-07  9.64713376150E-07  9.81681473231E-07
  9.98948017837E-07  1.01651825928E-06  1.03439753922E-06  1.05259129324E-06
  1.07110505255E-06  1.08994444564E-06  1.10911520001E-06  1.12862314387E-06
  1.14847420798E-06  1.16867442738E-06  1.18922994328E-06  1.21014700489E-06
  1.23143197136E-06  1.25309131366E-06  1.27513161660E-06  1.29755958080E-06
  1.32038202473E-06  1.34360588680E-06  1.36723822744E-06  1.39128623128E-06
  1.41575720932E-06  1.44065860113E-06  1.46599797717E-06  1.49178304102E-06
  1.51802163176E-06  1.54472172638E-06  1.57189144213E-06  1.59953903908E-06
  1.62767292254E-06  1.65630164569E-06  1.68543391214E-06  1.71507857858E-06
  1.74524465748E-06  1.77594131984E-06  1.80717789795E-06  1.83896388824E-06
  1.87130895420E-06  1.90422292927E-06  1.93771581982E-06  1.97179780828E-06
  2.00647925612E-06  2.04177070708E-06  2.07768289036E-06  2.11422672385E-06
  2.15141331750E-06  2.18925397664E-06  2.22776020546E-06  2.26694371050E-06
  2.30681640421E-06  2.34739040853E-06  2.38867805865E-06  2.43069190670E-06
  2.47344472558E-06  2.51694951288E-06  2.56121949476E-06  2.60626813004E-06
  2.65210911426E-06  2.69875638383E-06  2.74622412031E-06  2.79452675468E-06
  2.84367897175E-06  2.89369571460E-06  2.94459218916E-06  2.99638386881E-06
  3.04908649908E-06  3.10271610244E-06  3.15728898320E-06  3.21282173242E-06
  3.26933123297E-06  3.32683466468E-06  3.38534950957E-06  3.44489355711E-06
  3.50548490969E-06  3.56714198808E-06  3.62988353708E-06  3.69372863115E-06
  3.75869668026E-06  3.82480743580E-06  3.89208099652E-06  3.96053781471E-06
  4.03019870238E-06  4.10108483761E-06  4.17321777096E-06  4.24661943204E-06
  4.32131213619E-06  4.39731859122E-06  4.47466190437E-06  4.55336558930E-06
  4.63345357323E-06  4.71495020424E-06  4.79788025868E-06  4.88226894865E-06
  4.96814192973E-06  5.05552530873E-06  5.14444565166E-06  5.23492999178E-06
  5.32700583784E-06  5.42070118243E-06  5.51604451050E-06  5.61306480800E-06
  5.71179157072E-06  5.81225481325E-06  5.91448507809E-06  6.01851344493E-06
  6.12437154013E-06  6.23209154633E-06  6.34170621218E-06  6.45324886239E-06
  6.56675340778E-06  6.68225435561E-06  6.79978682010E-06  6.91938653308E-06
  7.04108985486E-06  7.16493378526E-06  7.29095597491E-06  7.41919473666E-06
  7.54968905722E-06  7.68247860904E-06  7.81760376236E-06  7.95510559747E-06
  8.09502591724E-06  8.23740725975E-06  8.38229291132E-06  8.52972691960E-06
  8.67975410697E-06  8.83242008421E-06  8.98777126432E-06  9.14585487664E-06
  9.30671898123E-06  9.47041248345E-06  9.63698514886E-06  9.80648761831E-06
  9.97897142340E-06  1.01544890021E-05  1.03330937146E-05  1.05148398597E-05
  1.06997826914E-05  1.08879784353E-05  1.10794843060E-05  1.12743585246E-05
  1.14726603360E-05  1.16744500273E-05  1.18797889459E-05  1.20887395183E-05
  1.23013652689E-05  1.25177308395E-05  1.27379020089E-05  1.29619457127E-05
  1.31899300639E-05  1.34219243737E-05  1.36579991721E-05  1.38982262298E-05
  1.41426785798E-05  1.43914305398E-05  1.46445577345E-05  1.49021371186E-05
  1.51642470008E-05  1.54309670667E-05  1.57023784037E-05  1.59785635254E-05
  1.62596063966E-05  1.65455924590E-05  1.68366086573E-05  1.71327434651E-05
  1.74340869123E-05  1.77407306125E-05  1.80527677903E-05  1.83702933103E-05
  1.86934037056E-05  1.90221972071E-05  1.93567737734E-05  1.96972351215E-05
  2.00436847573E-05  2.03962280072E-05  2.07549720502E-05  2.11200259505E-05
  2.14915006906E-05  2.18695092050E-05  2.22541664146E-05  2.26455892616E-05
  2.30438967449E-05  2.34492099569E-05  2.38616521194E-05  2.42813486217E-05
  2.47084270585E-05  2.51430172688E-05  2.55852513753E-05  2.60352638245E-05
  2.64931914277E-05  2.69591734025E-05  2.74333514152E-05  2.79158696238E-05
  2.84068747219E-05  2.89065159832E-05  2.94149453070E-05  2.99323172642E-05
  3.04587891447E-05  3.09945210045E-05  3.15396757151E-05  3.20944190126E-05
  3.26589195482E-05  3.32333489395E-05  3.38178818227E-05  3.44126959053E-05
  3.50179720209E-05  3.56338941834E-05  3.62606496434E-05  3.68984289451E-05
  3.75474259840E-05  3.82078380660E-05  3.88798659673E-05  3.95637139957E-05
  4.02595900523E-05  4.09677056951E-05  4.16882762030E-05  4.24215206414E-05
  4.31676619290E-05  4.39269269050E-05  4.46995463986E-05  4.54857552991E-05
  4.62857926271E-05  4.70999016072E-05  4.79283297422E-05  4.87713288880E-05
  4.96291553303E-05  5.05020698628E-05  5.13903378659E-05  5.22942293880E-05
  5.32140192271E-05  5.41499870147E-05  5.51024173006E-05  5.60715996394E-05
  5.70578286787E-05  5.80614042486E-05  5.90826314528E-05  6.01218207613E-05
  6.11792881051E-05  6.22553549718E-05  6.33503485036E-05  6.44646015970E-05
  6.55984530032E-05  6.67522474322E-05  6.79263356565E-05  6.91210746187E-05
  7.03368275392E-05  7.15739640271E-05  7.28328601927E-05  7.41138987613E-05
  7.54174691899E-05  7.67439677857E-05  7.80937978264E-05  7.94673696828E-05
  8.08651009436E-05  8.22874165424E-05  8.37347488869E-05  8.52075379902E-05
  8.67062316047E-05  8.82312853582E-05  8.97831628926E-05  9.13623360044E-05
  9.29692847886E-05  9.46044977844E-05  9.62684721237E-05  9.79617136825E-05
  9.96847372345E-05  1.01438066607E-04  1.03222234843E-04  1.05037784357E-04
  1.06885267108E-04  1.08765244762E-04  1.10678288861E-04  1.12624981005E-04
  1.14605913019E-04  1.16621687141E-04  1.18672916198E-04  1.20760223799E-04
  1.22884244520E-04  1.25045624099E-04  1.27245019631E-04  1.29483099770E-04
  1.31760544927E-04  1.34078047486E-04  1.36436312006E-04  1.38836055437E-04
  1.41278007342E-04  1.43762910116E-04  1.46291519209E-04  1.48864603362E-04
  1.51482944834E-04  1.54147339646E-04  1.56858597817E-04  1.59617543616E-04
  1.62425015807E-04  1.65281867909E-04  1.68188968453E-04  1.71147201245E-04
  1.74157465638E-04  1.77220676803E-04  1.80337766006E-04  1.83509680894E-04
  1.86737385784E-04  1.90021861949E-04  1.93364107927E-04  1.96765139815E-04
  2.00225991584E-04  2.03747715391E-04  2.07331381898E-04  2.10978080599E-04
  2.14688920152E-04  2.18465028714E-04  2.22307554285E-04  2.26217665056E-04
  2.30196549766E-04  2.34245418063E-04  2.38365500869E-04  2.42558050760E-04
  2.46824342339E-04  2.51165672631E-04  2.55583361472E-04  2.60078751914E-04
  2.64653210629E-04  2.69308128330E-04  2.74044920188E-04  2.78865026269E-04
  2.83769911964E-04  2.88761068440E-04  2.93840013092E-04  2.99008290004E-04
  3.04267470418E-04  3.09619153212E-04  3.15064965388E-04  3.20606562562E-04
  3.26245629474E-04  3.31983880492E-04  3.37823060142E-04  3.43764943630E-04
  3.49811337389E-04  3.55964079623E-04  3.62225040868E-04  3.68596124560E-04
  3.75079267616E-04  3.81676441018E-04  3.88389650418E-04  3.95220936742E-04
  4.02172376817E-04  4.09246083994E-04  4.16444208800E-04  4.23768939584E-04
  4.31222503186E-04  4.38807165614E-04  4.46525232731E-04  4.54379050959E-04
  4.62371007989E-04  4.70503533509E-04  4.78779099942E-04  4.87200223199E-04
  4.95769463441E-04  5.04489425861E-04  5.13362761471E-04  5.22392167915E-04
  5.31580390281E-04  5.40930221942E-04  5.50444505404E-04  5.60126133167E-04
  5.69978048606E-04  5.80003246869E-04  5.90204775783E-04  6.00585736782E-04
  6.11149285852E-04  6.21898634488E-04  6.32837050670E-04  6.43967859859E-04
  6.55294446007E-04  6.66820252585E-04  6.78548783630E-04  6.90483604811E-04
  7.02628344512E-04  7.14986694936E-04  7.27562413229E-04  7.40359322617E-04
  7.53381313575E-04  7.66632345004E-04  7.80116445440E-04  7.93837714273E-04
  8.07800322998E-04  8.22008516479E-04  8.36466614246E-04  8.51179011800E-04
  8.66150181956E-04  8.81384676198E-04  8.96887126067E-04  9.12662244565E-04
  9.28714827593E-04  9.45049755401E-04  9.61671994081E-04  9.78586597070E-04
  9.95798706690E-04  1.01331355571E-03  1.03113646893E-03  1.04927286482E-03
  1.06772825714E-03  1.08650825664E-03  1.10561857276E-03  1.12506501534E-03
  1.14485349643E-03  1.16499003206E-03  1.18548074407E-03  1.20633186198E-03
  1.22754972487E-03  1.24914078333E-03  1.27111160140E-03  1.29346885858E-03
  1.31621935184E-03  1.33936999772E-03  1.36292783439E-03  1.38690002383E-03
  1.41129385398E-03  1.43611674099E-03  1.46137623140E-03  1.48708000454E-03
  1.51323587478E-03  1.53985179394E-03  1.56693585370E-03  1.59449628807E-03
  1.62254147587E-03  1.65107994332E-03  1.68012036658E-03  1.70967157442E-03
  1.73974255091E-03  1.77034243812E-03  1.80148053893E-03  1.83316631983E-03
  1.86540941384E-03  1.89821962340E-03  1.93160692334E-03  1.96558146398E-03
  2.00015357413E-03  2.03533376429E-03  2.07113272982E-03  2.10756135422E-03
  2.14463071238E-03  2.18235207401E-03  2.22073690703E-03  2.25979688107E-03
  2.29954387102E-03  2.33998996061E-03  2.38114744614E-03  2.42302884017E-03
  2.46564687534E-03  2.50901450823E-03  2.55314492335E-03  2.59805153706E-03
  2.64374800172E-03  2.69024820982E-03  2.73756629820E-03  2.78571665235E-03
  2.83471391078E-03  2.88457296946E-03  2.93530898639E-03  2.98693738616E-03
  3.03947386466E-03  3.09293439385E-03  3.14733522664E-03  3.20269290177E-03
  3.25902424891E-03  3.31634639371E-03  3.37467676308E-03  3.43403309041E-03
  3.49443342101E-03  3.55589611760E-03  3.61843986585E-03  3.68208368011E-03
  3.74684690916E-03  3.81274924210E-03  3.87981071433E-03  3.94805171366E-03
  4.01749298650E-03  4.08815564413E-03  4.16006116920E-03  4.23323142218E-03
  4.30768864804E-03  4.38345548302E-03  4.46055496151E-03  4.53901052302E-03
  4.61884601935E-03  4.70008572183E-03  4.78275432869E-03  4.86687697254E-03
  4.95247922809E-03  5.03958711983E-03  5.12822713003E-03  5.21842620672E-03
  5.31021177192E-03  5.40361172997E-03  5.49865447603E-03  5.59536890465E-03
  5.69378441866E-03  5.79393093799E-03  5.89583890886E-03  5.99953931300E-03
  6.10506367704E-03  6.21244408217E-03  6.32171317380E-03  6.43290417157E-03
  6.54605087938E-03  6.66118769573E-03  6.77834962413E-03  6.89757228374E-03
  7.01889192026E-03  7.14234541686E-03  7.26797030547E-03  7.39580477815E-03
  7.52588769871E-03  7.65825861452E-03  7.79295776854E-03  7.93002611157E-03
  8.06950531466E-03  8.21143778182E-03  8.35586666288E-03  8.50283586662E-03
  8.65239007413E-03  8.80457475239E-03  8.95943616808E-03  9.11702140163E-03
  9.27737836159E-03  9.44055579915E-03  9.60660332296E-03  9.77557141425E-03
  9.94751144212E-03  1.01224756792E-02  1.03005173176E-02  1.04816904848E-02
  1.06660502606E-02  1.08536526933E-02  1.10445548174E-02  1.12388146701E-02
  1.14364913097E-02  1.16376448332E-02  1.18423363947E-02  1.20506282237E-02
  1.22625836445E-02  1.24782670951E-02  1.26977441467E-02  1.29210815241E-02
  1.31483471256E-02  1.33796100437E-02  1.36149405862E-02  1.38544102974E-02
  1.40980919802E-02  1.43460597179E-02  1.45983888967E-02  1.48551562290E-02
  1.51164397763E-02  1.53823189732E-02  1.56528746513E-02  1.59281890641E-02
  1.62083459118E-02  1.64934303667E-02  1.67835290992E-02  1.70787303042E-02
  1.73791237278E-02  1.76848006945E-02  1.79958541353E-02  1.83123786156E-02
  1.86344703641E-02  1.89622273021E-02  1.92957490731E-02  1.96351370734E-02
  1.99804944824E-02  2.03319262947E-02  2.06895393513E-02  2.10534423726E-02
  2.14237459912E-02  2.18005627855E-02  2.21840073141E-02  2.25741961506E-02
  2.29712479188E-02  2.33752833291E-02  2.37864252150E-02  2.42047985705E-02
  2.46305305880E-02  2.50637506972E-02  2.55045906043E-02  2.59531843318E-02
  2.64096682598E-02  2.68741811669E-02  2.73468642729E-02  2.78278612812E-02
  2.83173184231E-02  2.88153845015E-02  2.93222109369E-02  2.98379518131E-02
  3.03627639237E-02  3.08968068204E-02  3.14402428612E-02  3.19932372596E-02
  3.25559581353E-02  3.31285765646E-02  3.37112666332E-02  3.43042054885E-02
  3.49075733938E-02  3.55215537831E-02  3.61463333166E-02  3.67821019376E-02
  3.74290529305E-02  3.80873829790E-02  3.87572922266E-02  3.94389843368E-02
  4.01326665553E-02  4.08385497732E-02  4.15568485905E-02  4.22877813823E-02
  4.30315703642E-02  4.37884416604E-02  4.45586253725E-02  4.53423556491E-02
  4.61398707572E-02  4.69514131549E-02  4.77772295644E-02  4.86175710478E-02
  4.94726930827E-02  5.03428556407E-02  5.12283232656E-02  5.21293651543E-02
  5.30462552385E-02  5.39792722681E-02  5.49286998959E-02  5.58948267637E-02
  5.68779465901E-02  5.78783582599E-02  5.88963659149E-02  5.99322790465E-02
  6.09864125895E-02  6.20590870180E-02  6.31506284430E-02  6.42613687112E-02
  6.53916455062E-02  6.65418024509E-02  6.77121892122E-02  6.89031616073E-02
  7.01150817115E-02  7.13483179688E-02  7.26032453035E-02  7.38802452344E-02
  7.51797059908E-02  7.65020226305E-02  7.78475971597E-02  7.92168386554E-02
  8.06101633900E-02  8.20279949574E-02  8.34707644019E-02  8.49389103495E-02
  8.64328791411E-02  8.79531249680E-02  8.95001100103E-02  9.10743045773E-02
  9.26761872503E-02  9.43062450284E-02  9.59649734762E-02  9.76528768748E-02
  9.93704683751E-02  1.01118270153E-01  1.02896813571E-01  1.04706639334E-01
  1.06548297659E-01  1.08422348443E-01  1.10329361427E-01  1.12269916375E-01
  1.14244603248E-01  1.16254022385E-01  1.18298784680E-01  1.20379511778E-01
  1.22496836253E-01  1.24651401807E-01  1.26843863464E-01  1.29074887768E-01
  1.31345152990E-01  1.33655349326E-01  1.36006179115E-01  1.38398357049E-01
  1.40832610389E-01  1.43309679190E-01  1.45830316520E-01  1.48395288697E-01
  1.51005375513E-01  1.53661370480E-01  1.56364081064E-01  1.59114328933E-01
  1.61912950210E-01  1.64760795721E-01  1.67658731259E-01  1.70607637845E-01
  1.73608411996E-01  1.76661965996E-01  1.79769228178E-01  1.82931143199E-01
  1.86148672337E-01  1.89422793772E-01  1.92754502893E-01  1.96144812594E-01
  1.99594753586E-01  2.03105374709E-01  2.06677743250E-01  2.10312945268E-01
  2.14012085925E-01  2.17776289823E-01  2.21606701341E-01  2.25504484989E-01
  2.29470825757E-01  2.33506929480E-01  2.37614023199E-01  2.41793355541E-01
  2.46046197092E-01  2.50373840786E-01  2.54777602299E-01  2.59258820448E-01
  2.63818857598E-01  2.68459100077E-01  2.73180958594E-01  2.77985868675E-01
  2.82875291092E-01  2.87850712310E-01  2.92913644941E-01  2.98065628200E-01
  3.03308228376E-01  3.08643039307E-01  3.14071682865E-01  3.19595809447E-01
  3.25217098480E-01  3.30937258930E-01  3.36758029820E-01  3.42681180762E-01
  3.48708512493E-01  3.54841857421E-01  3.61083080186E-01  3.67434078224E-01
  3.73896782344E-01  3.80473157315E-01  3.87165202465E-01  3.93974952287E-01
  4.00904477059E-01  4.07955883472E-01  4.15131315271E-01  4.22432953906E-01
  4.29863019197E-01  4.37423770008E-01  4.45117504933E-01  4.52946562997E-01
  4.60913324362E-01  4.69020211057E-01  4.77269687711E-01  4.85664262302E-01
  4.94206486920E-01  5.02898958545E-01  5.11744319832E-01  5.20745259919E-01
  5.29904515241E-01  5.39224870365E-01  5.48709158834E-01  5.58360264029E-01
  5.68181120048E-01  5.78174712593E-01  5.88344079885E-01  5.98692313579E-01
  6.09222559712E-01  6.19938019654E-01  6.30841951083E-01  6.41937668975E-01
  6.53228546615E-01  6.64718016616E-01  6.76409571969E-01  6.88306767103E-01
  7.00413218962E-01  7.12732608109E-01  7.25268679844E-01  7.38025245342E-01
  7.51006182811E-01  7.64215438672E-01  7.77657028760E-01  7.91335039541E-01
  8.05253629359E-01  8.19417029698E-01  8.33829546465E-01  8.48495561308E-01
  8.63419532939E-01  8.78605998493E-01  8.94059574910E-01  9.09784960334E-01
  9.25786935544E-01  9.42070365407E-01  9.58640200358E-01  9.75501477902E-01
  9.92659324148E-01  1.01011895537E+00  1.02788567958E+00  1.04596489817E+00
  1.06436210751E+00  1.08308290066E+00  1.10213296907E+00  1.12151810426E+00
  1.14124419964E+00  1.16131725227E+00  1.18174336469E+00  1.20252874679E+00
  1.22367971766E+00  1.24520270755E+00  1.26710425982E+00  1.28939103289E+00
  1.31206980232E+00  1.33514746282E+00  1.35863103041E+00  1.38252764446E+00
  1.40684456995E+00  1.43158919963E+00  1.45676905628E+00  1.48239179500E+00
  1.50846520552E+00  1.53499721459E+00  1.56199588839E+00  1.58946943497E+00
  1.61742620674E+00  1.64587470303E+00  1.67482357265E+00  1.70428161653E+00
  1.73425779043E+00  1.76476120759E+00  1.79580114156E+00  1.82738702900E+00
  1.85952847254E+00  1.89223524372E+00  1.92551728594E+00  1.95938471750E+00
  1.99384783465E+00  2.02891711477E+00  2.06460321950E+00  2.10091699801E+00
  2.13786949028E+00  2.17547193051E+00  2.21373575044E+00  2.25267258293E+00
  2.29229426541E+00  2.33261284355E+00  2.37364057485E+00  2.41538993244E+00
  2.45787360881E+00  2.50110451971E+00  2.54509580805E+00  2.58986084793E+00
  2.63541324865E+00  2.68176685892E+00  2.72893577099E+00  2.77693432500E+00
  2.82577711331E+00  2.87547898495E+00  2.92605505011E+00  2.97752068475E+00
  3.02989153530E+00  3.08318352335E+00  3.13741285056E+00  3.19259600356E+00
  3.24874975893E+00  3.30589118836E+00  3.36403766379E+00  3.42320686272E+00
  3.48341677357E+00  3.54468570116E+00  3.60703227227E+00  3.67047544128E+00
  3.73503449598E+00  3.80072906340E+00  3.86757911578E+00  3.93560497665E+00
  4.00482732700E+00  4.07526721159E+00  4.14694604531E+00  4.21988561973E+00
  4.29410810968E+00  4.36963608004E+00  4.44649249258E+00  4.52470071291E+00
  4.60428451766E+00  4.68526810161E+00  4.76767608512E+00  4.85153352161E+00
  4.93686590511E+00  5.02369917811E+00  5.11205973936E+00  5.20197445194E+00
  5.29347065143E+00  5.38657615420E+00  5.48131926586E+00  5.57772878991E+00
  5.67583403644E+00  5.77566483108E+00  5.87725152407E+00  5.98062499944E+00
  6.08581668446E+00  6.19285855915E+00  6.30178316602E+00  6.41262361997E+00
  6.52541361835E+00  6.64018745119E+00  6.75698001165E+00  6.87582680661E+00
  6.99676396748E+00  7.11982826118E+00  7.24505710129E+00  7.37248855948E+00
  7.50216137702E+00  7.63411497662E+00  7.76838947437E+00  7.90502569194E+00
  8.04406516904E+00  8.18555017598E+00  8.32952372655E+00  8.47602959112E+00
  8.62511230990E+00  8.77681720654E+00  8.93119040184E+00  9.08827882783E+00
  9.24813024200E+00  9.41079324186E+00  9.57631727966E+00  9.74475267746E+00
  9.91615064245E+00  1.00905632824E+01  1.02680436218E+01  1.04486456175E+01
  1.06324241756E+01  1.08194351677E+01  1.10097354484E+01  1.12033828721E+01
  1.14004363109E+01  1.16009556723E+01  1.18050019175E+01  1.20126370799E+01
  1.22239242842E+01  1.24389277651E+01  1.26577128874E+01  1.28803461652E+01
  1.31068952829E+01  1.33374291151E+01  1.35720177480E+01  1.38107325004E+01
  1.40536459456E+01  1.43008319333E+01  1.45523656122E+01  1.48083234527E+01
  1.50687832703E+01  1.53338242490E+01  1.56035269658E+01  1.58779734148E+01
  1.61572470322E+01  1.64414327220E+01  1.67306168812E+01  1.70248874267E+01
  1.73243338217E+01  1.76290471028E+01  1.79391199079E+01  1.82546465044E+01
  1.85757228175E+01  1.89024464599E+01  1.92349167610E+01  1.95732347972E+01
  1.99175034229E+01  2.02678273016E+01  2.06243129374E+01  2.09870687080E+01
  2.13562048971E+01  2.17318337284E+01  2.21140693992E+01  2.25030281155E+01
  2.28988281273E+01  2.33015897644E+01  2.37114354731E+01  2.41284898531E+01
  2.45528796961E+01  2.49847340237E+01  2.54241841266E+01  2.58713636051E+01
  2.63264084092E+01  2.67894568801E+01  2.72606497923E+01  2.77401303962E+01
  2.82280444619E+01  2.87245403234E+01  2.92297689238E+01  2.97438838610E+01
  3.02670414344E+01  3.07994006928E+01  3.13411234821E+01  3.18923744951E+01
  3.24533213213E+01  3.30241344980E+01  3.36049875617E+01  3.41960571016E+01
  3.47975228126E+01  3.54095675503E+01  3.60323773865E+01  3.66661416658E+01
  3.73110530631E+01  3.79673076421E+01  3.86351049153E+01  3.93146479041E+01
  4.00061432009E+01  4.07098010317E+01  4.14258353204E+01  4.21544637532E+01
  4.28959078454E+01  4.36503930082E+01  4.44181486178E+01  4.51994080847E+01
  4.59944089247E+01  4.68033928313E+01  4.76266057492E+01  4.84642979488E+01
  4.93167241024E+01  5.01841433618E+01  5.10668194369E+01  5.19650206760E+01
  5.28790201472E+01  5.38090957216E+01  5.47555301576E+01  5.57186111871E+01
  5.66986316027E+01  5.76958893470E+01  5.87106876030E+01  5.97433348862E+01
  6.07941451386E+01  6.18634378240E+01  6.29515380253E+01  6.40587765430E+01
  6.51854899961E+01  6.63320209243E+01  6.74987178919E+01  6.86859355945E+01
  6.98940349659E+01  7.11233832884E+01  7.23743543045E+01  7.36473283301E+01
  7.49426923706E+01  7.62608402383E+01  7.76021726720E+01  7.89670974592E+01
  8.03560295596E+01  8.17693912320E+01  8.32076121616E+01  8.46711295917E+01
  8.61603884560E+01  8.76758415139E+01  8.92179494884E+01  9.07871812060E+01
  9.23840137394E+01  9.40089325522E+01  9.56624316469E+01  9.73450137146E+01
  9.90571902884E+01  1.00799481899E+02  1.02572418231E+02  1.04376538287E+02
  1.06212390550E+02  1.08080533149E+02  1.09981534031E+02  1.11915971132E+02
  1.13884432553E+02  1.15887516739E+02  1.17925832660E+02  1.20000000000E+02
  </PP_R>
  <PP_RAB>
  1.74358527054E-09  1.77425274636E-09  1.80545962458E-09  1.83721539261E-09
  1.86952970473E-09  1.90241238502E-09  1.93587343038E-09  1.96992301352E-09
  2.00457148607E-09  2.03982938176E-09  2.07570741956E-09  2.11221650700E-09
  2.14936774346E-09  2.18717242351E-09  2.22564204043E-09  2.26478828961E-09
  2.30462307217E-09  2.34515849853E-09  2.38640689216E-09  2.42838079324E-09
  2.47109296254E-09  2.51455638527E-09  2.55878427505E-09  2.60379007787E-09
  2.64958747626E-09  2.69619039339E-09  2.74361299732E-09  2.79186970532E-09
  2.84097518822E-09  2.89094437491E-09  2.94179245686E-09  2.99353489274E-09
  3.04618741309E-09  3.09976602518E-09  3.15428701778E-09  3.20976696619E-09
  3.26622273724E-09  3.32367149442E-09  3.38213070311E-09  3.44161813588E-09
  3.50215187791E-09  3.56375033247E-09  3.62643222650E-09  3.69021661635E-09
  3.75512289353E-09  3.82117079064E-09  3.88838038734E-09  3.95677211646E-09
  4.02636677023E-09  4.09718550659E-09  4.16924985560E-09  4.24258172603E-09
  4.31720341200E-09  4.39313759973E-09  4.47040737449E-09  4.54903622758E-09
  4.62904806347E-09  4.71046720710E-09  4.79331841124E-09  4.87762686405E-09
  4.96341819669E-09  5.05071849116E-09  5.13955428820E-09  5.22995259538E-09
  5.32194089528E-09  5.41554715389E-09  5.51079982907E-09  5.60772787921E-09
  5.70636077206E-09  5.80672849366E-09  5.90886155747E-09  6.01279101364E-09
  6.11854845846E-09  6.22616604396E-09  6.33567648767E-09  6.44711308260E-09
  6.56050970732E-09  6.67590083630E-09  6.79332155036E-09  6.91280754737E-09
  7.03439515304E-09  7.15812133204E-09  7.28402369920E-09  7.41214053092E-09
  7.54251077685E-09  7.67517407174E-09  7.81017074742E-09  7.94754184513E-09
  8.08732912799E-09  8.22957509364E-09  8.37432298724E-09  8.52161681456E-09
  8.67150135537E-09  8.82402217707E-09  8.97922564854E-09  9.13715895421E-09
  9.29787010843E-09  9.46140797009E-09  9.62782225741E-09  9.79716356312E-09
  9.96948336977E-09  1.01448340655E-08  1.03232689598E-08  1.05048422998E-08
  1.06896092870E-08  1.08776260934E-08  1.10689498795E-08  1.12636388107E-08
  1.14617520758E-08  1.16633499045E-08  1.18684935859E-08  1.20772454871E-08
  1.22896690721E-08  1.25058289213E-08  1.27257907509E-08  1.29496214328E-08
  1.31773890155E-08  1.34091627440E-08  1.36450130813E-08  1.38850117300E-08
  1.41292316536E-08  1.43777470990E-08  1.46306336191E-08  1.48879680956E-08
  1.51498287624E-08  1.54162952296E-08  1.56874485074E-08  1.59633710310E-08
  1.62441466853E-08  1.65298608308E-08  1.68206003295E-08  1.71164535709E-08
  1.74175104993E-08  1.77238626412E-08  1.80356031326E-08  1.83528267479E-08
  1.86756299282E-08  1.90041108113E-08  1.93383692606E-08  1.96785068964E-08
  2.00246271262E-08  2.03768351763E-08  2.07352381238E-08  2.10999449291E-08
  2.14710664693E-08  2.18487155714E-08  2.22330070470E-08  2.26240577273E-08
  2.30219864980E-08  2.34269143362E-08  2.38389643467E-08  2.42582617996E-08
  2.46849341682E-08  2.51191111681E-08  2.55609247963E-08  2.60105093715E-08
  2.64680015750E-08  2.69335404919E-08  2.74072676539E-08  2.78893270818E-08
  2.83798653299E-08  2.88790315299E-08  2.93869774367E-08  2.99038574742E-08
  3.04298287827E-08  3.09650512661E-08  3.15096876410E-08  3.20639034859E-08
  3.26278672918E-08  3.32017505129E-08  3.37857276193E-08  3.43799761499E-08
  3.49846767661E-08  3.56000133068E-08  3.62261728448E-08  3.68633457429E-08
  3.75117257123E-08  3.81715098713E-08  3.88428988053E-08  3.95260966277E-08
  4.02213110421E-08  4.09287534051E-08  4.16486387911E-08  4.23811860573E-08
  4.31266179101E-08  4.38851609734E-08  4.46570458567E-08  4.54425072261E-08
  4.62417838747E-08  4.70551187962E-08  4.78827592577E-08  4.87249568759E-08
  4.95819676928E-08  5.04540522539E-08  5.13414756876E-08  5.22445077853E-08
  5.31634230839E-08  5.40985009488E-08  5.50500256594E-08  5.60182864950E-08
  5.70035778231E-08  5.80061991885E-08  5.90264554050E-08  6.00646566474E-08
  6.11211185462E-08  6.21961622834E-08  6.32901146901E-08  6.44033083463E-08
  6.55360816813E-08  6.66887790770E-08  6.78617509726E-08  6.90553539713E-08
  7.02699509481E-08  7.15059111608E-08  7.27636103619E-08  7.40434309128E-08
  7.53457619005E-08  7.66709992551E-08  7.80195458710E-08  7.93918117287E-08
  8.07882140199E-08  8.22091772743E-08  8.36551334883E-08  8.51265222567E-08
  8.66237909061E-08  8.81473946313E-08  8.96977966331E-08  9.12754682596E-08
  9.28808891492E-08  9.45145473767E-08  9.61769396013E-08  9.78685712179E-08
  9.95899565109E-08  1.01341618810E-07  1.03124090650E-07  1.04937913931E-07
  1.06783640087E-07  1.08661830248E-07  1.10573055416E-07  1.12517896636E-07
  1.14496945171E-07  1.16510802684E-07  1.18560081423E-07  1.20645404402E-07
  1.22767405595E-07  1.24926730123E-07  1.27124034460E-07  1.29359986621E-07
  1.31635266373E-07  1.33950565439E-07  1.36306587709E-07  1.38704049453E-07
  1.41143679539E-07  1.43626219655E-07  1.46152424535E-07  1.48723062187E-07
  1.51338914128E-07  1.54000775620E-07  1.56709455914E-07  1.59465778494E-07
  1.62270581327E-07  1.65124717121E-07  1.68029053579E-07  1.70984473670E-07
  1.73991875889E-07  1.77052174538E-07  1.80166299998E-07  1.83335199015E-07
  1.86559834987E-07  1.89841188257E-07  1.93180256411E-07  1.96578054582E-07
  2.00035615757E-07  2.03553991091E-07  2.07134250231E-07  2.10777481634E-07
  2.14484792903E-07  2.18257311123E-07  2.22096183202E-07  2.26002576221E-07
  2.29977677789E-07  2.34022696402E-07  2.38138861814E-07  2.42327425409E-07
  2.46589660577E-07  2.50926863112E-07  2.55340351593E-07  2.59831467796E-07
  2.64401577094E-07  2.69052068877E-07  2.73784356971E-07  2.78599880072E-07
  2.83500102178E-07  2.88486513039E-07  2.93560628606E-07  2.98723991496E-07
  3.03978171456E-07  3.09324765845E-07  3.14765400116E-07  3.20301728314E-07
  3.25935433573E-07  3.31668228635E-07  3.37501856365E-07  3.43438090282E-07