<UPF version="2.0.1">
<PP_INFO>

This pseudopotential file has been produced using the code
ONCVPSP  (Optimized Norm-Conservinng Vanderbilt PSeudopotential)
scalar-relativistic version 3.2.3 08/16/2016 by D. R. Hamann
The code is available through a link at URL www.mat-simresearch.com.
Documentation with the package provides a full discription of the
input data below.


While it is not required under the terms of the GNU GPL, it is
suggested that you cite D. R. Hamann, Phys. Rev. B 88, 085117 (2013)
in any publication using these pseudopotentials.

<PP_INPUTFILE>
# ATOM AND REFERENCE CONFIGURATION
# atsym  z   nc   nv     iexc    psfile
Ar 18.00    3    2       4      upf
#
#   n    l    f        energy (Ha)
1    0    2.00
2    0    2.00
2    1    6.00
3    0    2.00
3    1    6.00
#
# PSEUDOPOTENTIAL AND OPTIMIZATION
# lmax
2
#
#   l,   rc,      ep,       ncon, nbas, qcut
0   1.55000  -0.89253    4    8   8.20000
1   1.55000  -0.37741    4    8   8.20000
2   1.55000   0.10000    4    8   8.20000
#
# LOCAL POTENTIAL
# lloc, lpopt,  rc(5),   dvloc0
4    5   1.50000      0.00000
#
# VANDERBILT-KLEINMAN-BYLANDER PROJECTORs
# l, nproj, debl
0    2   1.50000
1    2   1.50000
2    2   1.00000
#
# MODEL CORE CHARGE
# icmod, fcfact, rcfact
3   7.00000   1.25000
#
# LOG DERIVATIVE ANALYSIS
# epsh1, epsh2, depsh
-12.00   12.00    0.02
#
# OUTPUT GRID
# rlmax, drl
4.00    0.01
#
# TEST CONFIGURATIONS
# ncnf
0
# nvcnf
#   n    l    f
</PP_INPUTFILE>
</PP_INFO>
<!--                               -->
<!-- END OF HUMAN READABLE SECTION -->
<!--                               -->
<PP_HEADER
generated="Generated using ONCVPSP code by D. R. Hamann"
author="anonymous"
date="170120"
comment=""
element="Ar"
pseudo_type="NC"
relativistic="scalar"
is_ultrasoft="F"
is_paw="F"
is_coulomb="F"
has_so="F"
has_wfc="F"
has_gipaw="F"
core_correction="T"
functional="PBE"
z_valence="    8.00"
total_psenergy="  -4.23191090475E+01"
rho_cutoff="   9.37000000000E+00"
l_max="2"
l_local="-1"
mesh_size="   938"
number_of_wfc="2"
number_of_proj="6"/>
<PP_MESH>
<PP_R type="real"  size=" 938" columns="8">
0.0000    0.0100    0.0200    0.0300    0.0400    0.0500    0.0600    0.0700
0.0800    0.0900    0.1000    0.1100    0.1200    0.1300    0.1400    0.1500
0.1600    0.1700    0.1800    0.1900    0.2000    0.2100    0.2200    0.2300
0.2400    0.2500    0.2600    0.2700    0.2800    0.2900    0.3000    0.3100
0.3200    0.3300    0.3400    0.3500    0.3600    0.3700    0.3800    0.3900
0.4000    0.4100    0.4200    0.4300    0.4400    0.4500    0.4600    0.4700
0.4800    0.4900    0.5000    0.5100    0.5200    0.5300    0.5400    0.5500
0.5600    0.5700    0.5800    0.5900    0.6000    0.6100    0.6200    0.6300
0.6400    0.6500    0.6600    0.6700    0.6800    0.6900    0.7000    0.7100
0.7200    0.7300    0.7400    0.7500    0.7600    0.7700    0.7800    0.7900
0.8000    0.8100    0.8200    0.8300    0.8400    0.8500    0.8600    0.8700
0.8800    0.8900    0.9000    0.9100    0.9200    0.9300    0.9400    0.9500
0.9600    0.9700    0.9800    0.9900    1.0000    1.0100    1.0200    1.0300
1.0400    1.0500    1.0600    1.0700    1.0800    1.0900    1.1000    1.1100
1.1200    1.1300    1.1400    1.1500    1.1600    1.1700    1.1800    1.1900
1.2000    1.2100    1.2200    1.2300    1.2400    1.2500    1.2600    1.2700
1.2800    1.2900    1.3000    1.3100    1.3200    1.3300    1.3400    1.3500
1.3600    1.3700    1.3800    1.3900    1.4000    1.4100    1.4200    1.4300
1.4400    1.4500    1.4600    1.4700    1.4800    1.4900    1.5000    1.5100
1.5200    1.5300    1.5400    1.5500    1.5600    1.5700    1.5800    1.5900
1.6000    1.6100    1.6200    1.6300    1.6400    1.6500    1.6600    1.6700
1.6800    1.6900    1.7000    1.7100    1.7200    1.7300    1.7400    1.7500
1.7600    1.7700    1.7800    1.7900    1.8000    1.8100    1.8200    1.8300
1.8400    1.8500    1.8600    1.8700    1.8800    1.8900    1.9000    1.9100
1.9200    1.9300    1.9400    1.9500    1.9600    1.9700    1.9800    1.9900
2.0000    2.0100    2.0200    2.0300    2.0400    2.0500    2.0600    2.0700
2.0800    2.0900    2.1000    2.1100    2.1200    2.1300    2.1400    2.1500
2.1600    2.1700    2.1800    2.1900    2.2000    2.2100    2.2200    2.2300
2.2400    2.2500    2.2600    2.2700    2.2800    2.2900    2.3000    2.3100
2.3200    2.3300    2.3400    2.3500    2.3600    2.3700    2.3800    2.3900
2.4000    2.4100    2.4200    2.4300    2.4400    2.4500    2.4600    2.4700
2.4800    2.4900    2.5000    2.5100    2.5200    2.5300    2.5400    2.5500
2.5600    2.5700    2.5800    2.5900    2.6000    2.6100    2.6200    2.6300
2.6400    2.6500    2.6600    2.6700    2.6800    2.6900    2.7000    2.7100
2.7200    2.7300    2.7400    2.7500    2.7600    2.7700    2.7800    2.7900
2.8000    2.8100    2.8200    2.8300    2.8400    2.8500    2.8600    2.8700
2.8800    2.8900    2.9000    2.9100    2.9200    2.9300    2.9400    2.9500
2.9600    2.9700    2.9800    2.9900    3.0000    3.0100    3.0200    3.0300
3.0400    3.0500    3.0600    3.0700    3.0800    3.0900    3.1000    3.1100
3.1200    3.1300    3.1400    3.1500    3.1600    3.1700    3.1800    3.1900
3.2000    3.2100    3.2200    3.2300    3.2400    3.2500    3.2600    3.2700
3.2800    3.2900    3.3000    3.3100    3.3200    3.3300    3.3400    3.3500
3.3600    3.3700    3.3800    3.3900    3.4000    3.4100    3.4200    3.4300
3.4400    3.4500    3.4600    3.4700    3.4800    3.4900    3.5000    3.5100
3.5200    3.5300    3.5400    3.5500    3.5600    3.5700    3.5800    3.5900
3.6000    3.6100    3.6200    3.6300    3.6400    3.6500    3.6600    3.6700
3.6800    3.6900    3.7000    3.7100    3.7200    3.7300    3.7400    3.7500
3.7600    3.7700    3.7800    3.7900    3.8000    3.8100    3.8200    3.8300
3.8400    3.8500    3.8600    3.8700    3.8800    3.8900    3.9000    3.9100
3.9200    3.9300    3.9400    3.9500    3.9600    3.9700    3.9800    3.9900
4.0000    4.0100    4.0200    4.0300    4.0400    4.0500    4.0600    4.0700
4.0800    4.0900    4.1000    4.1100    4.1200    4.1300    4.1400    4.1500
4.1600    4.1700    4.1800    4.1900    4.2000    4.2100    4.2200    4.2300
4.2400    4.2500    4.2600    4.2700    4.2800    4.2900    4.3000    4.3100
4.3200    4.3300    4.3400    4.3500    4.3600    4.3700    4.3800    4.3900
4.4000    4.4100    4.4200    4.4300    4.4400    4.4500    4.4600    4.4700
4.4800    4.4900    4.5000    4.5100    4.5200    4.5300    4.5400    4.5500
4.5600    4.5700    4.5800    4.5900    4.6000    4.6100    4.6200    4.6300
4.6400    4.6500    4.6600    4.6700    4.6800    4.6900    4.7000    4.7100
4.7200    4.7300    4.7400    4.7500    4.7600    4.7700    4.7800    4.7900
4.8000    4.8100    4.8200    4.8300    4.8400    4.8500    4.8600    4.8700
4.8800    4.8900    4.9000    4.9100    4.9200    4.9300    4.9400    4.9500
4.9600    4.9700    4.9800    4.9900    5.0000    5.0100    5.0200    5.0300
5.0400    5.0500    5.0600    5.0700    5.0800    5.0900    5.1000    5.1100
5.1200    5.1300    5.1400    5.1500    5.1600    5.1700    5.1800    5.1900
5.2000    5.2100    5.2200    5.2300    5.2400    5.2500    5.2600    5.2700
5.2800    5.2900    5.3000    5.3100    5.3200    5.3300    5.3400    5.3500
5.3600    5.3700    5.3800    5.3900    5.4000    5.4100    5.4200    5.4300
5.4400    5.4500    5.4600    5.4700    5.4800    5.4900    5.5000    5.5100
5.5200    5.5300    5.5400    5.5500    5.5600    5.5700    5.5800    5.5900
5.6000    5.6100    5.6200    5.6300    5.6400    5.6500    5.6600    5.6700
5.6800    5.6900    5.7000    5.7100    5.7200    5.7300    5.7400    5.7500
5.7600    5.7700    5.7800    5.7900    5.8000    5.8100    5.8200    5.8300
5.8400    5.8500    5.8600    5.8700    5.8800    5.8900    5.9000    5.9100
5.9200    5.9300    5.9400    5.9500    5.9600    5.9700    5.9800    5.9900
6.0000    6.0100    6.0200    6.0300    6.0400    6.0500    6.0600    6.0700
6.0800    6.0900    6.1000    6.1100    6.1200    6.1300    6.1400    6.1500
6.1600    6.1700    6.1800    6.1900    6.2000    6.2100    6.2200    6.2300
6.2400    6.2500    6.2600    6.2700    6.2800    6.2900    6.3000    6.3100
6.3200    6.3300    6.3400    6.3500    6.3600    6.3700    6.3800    6.3900
6.4000    6.4100    6.4200    6.4300    6.4400    6.4500    6.4600    6.4700
6.4800    6.4900    6.5000    6.5100    6.5200    6.5300    6.5400    6.5500
6.5600    6.5700    6.5800    6.5900    6.6000    6.6100    6.6200    6.6300
6.6400    6.6500    6.6600    6.6700    6.6800    6.6900    6.7000    6.7100
6.7200    6.7300    6.7400    6.7500    6.7600    6.7700    6.7800    6.7900
6.8000    6.8100    6.8200    6.8300    6.8400    6.8500    6.8600    6.8700
6.8800    6.8900    6.9000    6.9100    6.9200    6.9300    6.9400    6.9500
6.9600    6.9700    6.9800    6.9900    7.0000    7.0100    7.0200    7.0300
7.0400    7.0500    7.0600    7.0700    7.0800    7.0900    7.1000    7.1100
7.1200    7.1300    7.1400    7.1500    7.1600    7.1700    7.1800    7.1900
7.2000    7.2100    7.2200    7.2300    7.2400    7.2500    7.2600    7.2700
7.2800    7.2900    7.3000    7.3100    7.3200    7.3300    7.3400    7.3500
7.3600    7.3700    7.3800    7.3900    7.4000    7.4100    7.4200    7.4300
7.4400    7.4500    7.4600    7.4700    7.4800    7.4900    7.5000    7.5100
7.5200    7.5300    7.5400    7.5500    7.5600    7.5700    7.5800    7.5900
7.6000    7.6100    7.6200    7.6300    7.6400    7.6500    7.6600    7.6700
7.6800    7.6900    7.7000    7.7100    7.7200    7.7300    7.7400    7.7500
7.7600    7.7700    7.7800    7.7900    7.8000    7.8100    7.8200    7.8300
7.8400    7.8500    7.8600    7.8700    7.8800    7.8900    7.9000    7.9100
7.9200    7.9300    7.9400    7.9500    7.9600    7.9700    7.9800    7.9900
8.0000    8.0100    8.0200    8.0300    8.0400    8.0500    8.0600    8.0700
8.0800    8.0900    8.1000    8.1100    8.1200    8.1300    8.1400    8.1500
8.1600    8.1700    8.1800    8.1900    8.2000    8.2100    8.2200    8.2300
8.2400    8.2500    8.2600    8.2700    8.2800    8.2900    8.3000    8.3100
8.3200    8.3300    8.3400    8.3500    8.3600    8.3700    8.3800    8.3900
8.4000    8.4100    8.4200    8.4300    8.4400    8.4500    8.4600    8.4700
8.4800    8.4900    8.5000    8.5100    8.5200    8.5300    8.5400    8.5500
8.5600    8.5700    8.5800    8.5900    8.6000    8.6100    8.6200    8.6300
8.6400    8.6500    8.6600    8.6700    8.6800    8.6900    8.7000    8.7100
8.7200    8.7300    8.7400    8.7500    8.7600    8.7700    8.7800    8.7900
8.8000    8.8100    8.8200    8.8300    8.8400    8.8500    8.8600    8.8700
8.8800    8.8900    8.9000    8.9100    8.9200    8.9300    8.9400    8.9500
8.9600    8.9700    8.9800    8.9900    9.0000    9.0100    9.0200    9.0300
9.0400    9.0500    9.0600    9.0700    9.0800    9.0900    9.1000    9.1100
9.1200    9.1300    9.1400    9.1500    9.1600    9.1700    9.1800    9.1900
9.2000    9.2100    9.2200    9.2300    9.2400    9.2500    9.2600    9.2700
9.2800    9.2900    9.3000    9.3100    9.3200    9.3300    9.3400    9.3500
9.3600    9.3700
</PP_R>
<PP_RAB type="real"  size=" 938" columns="8">
0.0100    0.0100    0.0100    0.0100    0.0100    0.0100    0.0100    0.0100
0.0100    0.0100    0.0100    0.0100    0.0100    0.0100    0.0100    0.0100
0.0100    0.0100    0.0100    0.0100    0.0100    0.0100    0.0100    0.0100
0.0100    0.0100    0.0100    0.0100    0.0100    0.0100    0.0100    0.0100
0.0100    0.0100    0.0100    0.0100    0.0100    0.0100    0.0100    0.0100
0.0100    0.0100    0.0100    0.0100    0.0100    0.0100    0.0100    0.0100
0.0100    0.0100    0.0100    0.0100    0.0100    0.0100    0.0100    0.0100
0.0100    0.0100    0.0100    0.0100    0.0100    0.0100    0.0100    0.0100
0.0100    0.0100    0.0100    0.0100    0.0100    0.0100    0.0100    0.0100
0.0100    0.0100    0.0100    0.0100    0.0100    0.0100    0.0100    0.0100
0.0100    0.0100    0.0100    0.0100    0.0100    0.0100    0.0100    0.0100
0.0100    0.0100    0.0100    0.0100    0.0100    0.0100    0.0100    0.0100
0.0100    0.0100    0.0100    0.0100    0.0100    0.0100    0.0100    0.0100
0.0100    0.0100    0.0100    0.0100    0.0100    0.0100    0.0100    0.0100
0.0100    0.0100    0.0100    0.0100    0.0100    0.0100    0.0100    0.0100
0.0100    0.0100    0.0100    0.0100    0.0100    0.0100    0.0100    0.0100
0.0100    0.0100    0.0100    0.0100    0.0100    0.0100    0.0100    0.0100
0.0100    0.0100    0.0100    0.0100    0.0100    0.0100    0.0100    0.0100
0.0100    0.0100    0.0100    0.0100    0.0100    0.0100    0.0100    0.0100
0.0100    0.0100    0.0100    0.0100    0.0100    0.0100    0.0100    0.0100
0.0100    0.0100    0.0100    0.0100    0.0100    0.0100    0.0100    0.0100
0.0100    0.0100    0.0100    0.0100    0.0100    0.0100    0.0100    0.0100
0.0100    0.0100    0.0100    0.0100    0.0100    0.0100    0.0100    0.0100
0.0100    0.0100    0.0100    0.0100    0.0100    0.0100    0.0100    0.0100
0.0100    0.0100    0.0100    0.0100    0.0100    0.0100    0.0100    0.0100
0.0100    0.0100    0.0100    0.0100    0.0100    0.0100    0.0100    0.0100
0.0100    0.0100    0.0100    0.0100    0.0100    0.0100    0.0100    0.0100
0.0100    0.0100    0.0100    0.0100    0.0100    0.0100    0.0100    0.0100
0.0100    0.0100    0.0100    0.0100    0.0100    0.0100    0.0100    0.0100
0.0100    0.0100    0.0100    0.0100    0.0100    0.0100    0.0100    0.0100
0.0100    0.0100    0.0100    0.0100    0.0100    0.0100    0.0100    0.0100
0.0100    0.0100    0.0100    0.0100    0.0100    0.0100    0.0100    0.0100
0.0100    0.0100    0.0100    0.0100    0.0100    0.0100    0.0100    0.0100
0.0100    0.0100    0.0100    0.0100    0.0100    0.0100    0.0100    0.0100
0.0100    0.0100    0.0100    0.0100    0.0100    0.0100    0.0100    0.0100
0.0100    0.0100    0.0100    0.0100    0.0100    0.0100    0.0100    0.0100
0.0100    0.0100    0.0100    0.0100    0.0100    0.0100    0.0100    0.0100
0.0100    0.0100    0.0100    0.0100    0.0100    0.0100    0.0100    0.0100
0.0100    0.0100    0.0100    0.0100    0.0100    0.0100    0.0100    0.0100
0.0100    0.0100    0.0100    0.0100    0.0100    0.0100    0.0100    0.0100
0.0100    0.0100    0.0100    0.0100    0.0100    0.0100    0.0100    0.0100
0.0100    0.0100    0.0100    0.0100    0.0100    0.0100    0.0100    0.0100
0.0100    0.0100    0.0100    0.0100    0.0100    0.0100    0.0100    0.0100
0.0100    0.0100    0.0100    0.0100    0.0100    0.0100    0.0100    0.0100
0.0100    0.0100    0.0100    0.0100    0.0100    0.0100    0.0100    0.0100
0.0100    0.0100    0.0100    0.0100    0.0100    0.0100    0.0100    0.0100
0.0100    0.0100    0.0100    0.0100    0.0100    0.0100    0.0100    0.0100
0.0100    0.0100    0.0100    0.0100    0.0100    0.0100    0.0100    0.0100
0.0100    0.0100    0.0100    0.0100    0.0100    0.0100    0.0100    0.0100
0.0100    0.0100    0.0100    0.0100    0.0100    0.0100    0.0100    0.0100
0.0100    0.0100    0.0100    0.0100    0.0100    0.0100    0.0100    0.0100
0.0100    0.0100    0.0100    0.0100    0.0100    0.0100    0.0100    0.0100
0.0100    0.0100    0.0100    0.0100    0.0100    0.0100    0.0100    0.0100
0.0100    0.0100    0.0100    0.0100    0.0100    0.0100    0.0100    0.0100
0.0100    0.0100    0.0100    0.0100    0.0100    0.0100    0.0100    0.0100
0.0100    0.0100    0.0100    0.0100    0.0100    0.0100    0.0100    0.0100
0.0100    0.0100    0.0100    0.0100    0.0100    0.0100    0.0100    0.0100
0.0100    0.0100    0.0100    0.0100    0.0100    0.0100    0.0100    0.0100
0.0100    0.0100    0.0100    0.0100    0.0100    0.0100    0.0100    0.0100
0.0100    0.0100    0.0100    0.0100    0.0100    0.0100    0.0100    0.0100
0.0100    0.0100    0.0100    0.0100    0.0100    0.0100    0.0100    0.0100
0.0100    0.0100    0.0100    0.0100    0.0100    0.0100    0.0100    0.0100
0.0100    0.0100    0.0100    0.0100    0.0100    0.0100    0.0100    0.0100
0.0100    0.0100    0.0100    0.0100    0.0100    0.0100    0.0100    0.0100
0.0100    0.0100    0.0100    0.0100    0.0100    0.0100    0.0100    0.0100
0.0100    0.0100    0.0100    0.0100    0.0100    0.0100    0.0100    0.0100
0.0100    0.0100    0.0100    0.0100    0.0100    0.0100    0.0100    0.0100
0.0100    0.0100    0.0100    0.0100    0.0100    0.0100    0.0100    0.0100
0.0100    0.0100    0.0100    0.0100    0.0100    0.0100    0.0100    0.0100
0.0100    0.0100    0.0100    0.0100    0.0100    0.0100    0.0100    0.0100
0.0100    0.0100    0.0100    0.0100    0.0100    0.0100    0.0100    0.0100
0.0100    0.0100    0.0100    0.0100    0.0100    0.0100    0.0100    0.0100
0.0100    0.0100    0.0100    0.0100    0.0100    0.0100    0.0100    0.0100
0.0100    0.0100    0.0100    0.0100    0.0100    0.0100    0.0100    0.0100
0.0100    0.0100    0.0100    0.0100    0.0100    0.0100    0.0100    0.0100
0.0100    0.0100    0.0100    0.0100    0.0100    0.0100    0.0100    0.0100
0.0100    0.0100    0.0100    0.0100    0.0100    0.0100    0.0100    0.0100
0.0100    0.0100    0.0100    0.0100    0.0100    0.0100    0.0100    0.0100
0.0100    0.0100    0.0100    0.0100    0.0100    0.0100    0.0100    0.0100
0.0100    0.0100    0.0100    0.0100    0.0100    0.0100    0.0100    0.0100
0.0100    0.0100    0.0100    0.0100    0.0100    0.0100    0.0100    0.0100
0.0100    0.0100    0.0100    0.0100    0.0100    0.0100    0.0100    0.0100
0.0100    0.0100    0.0100    0.0100    0.0100    0.0100    0.0100    0.0100
0.0100    0.0100    0.0100    0.0100    0.0100    0.0100    0.0100    0.0100
0.0100    0.0100    0.0100    0.0100    0.0100    0.0100    0.0100    0.0100
0.0100    0.0100    0.0100    0.0100    0.0100    0.0100    0.0100    0.0100
0.0100    0.0100    0.0100    0.0100    0.0100    0.0100    0.0100    0.0100
0.0100    0.0100    0.0100    0.0100    0.0100    0.0100    0.0100    0.0100
0.0100    0.0100    0.0100    0.0100    0.0100    0.0100    0.0100    0.0100
0.0100    0.0100    0.0100    0.0100    0.0100    0.0100    0.0100    0.0100
0.0100    0.0100    0.0100    0.0100    0.0100    0.0100    0.0100    0.0100
0.0100    0.0100    0.0100    0.0100    0.0100    0.0100    0.0100    0.0100
0.0100    0.0100    0.0100    0.0100    0.0100    0.0100    0.0100    0.0100
0.0100    0.0100    0.0100    0.0100    0.0100    0.0100    0.0100    0.0100
0.0100    0.0100    0.0100    0.0100    0.0100    0.0100    0.0100    0.0100
0.0100    0.0100    0.0100    0.0100    0.0100    0.0100    0.0100    0.0100
0.0100    0.0100    0.0100    0.0100    0.0100    0.0100    0.0100    0.0100
0.0100    0.0100    0.0100    0.0100    0.0100    0.0100    0.0100    0.0100
0.0100    0.0100    0.0100    0.0100    0.0100    0.0100    0.0100    0.0100
0.0100    0.0100    0.0100    0.0100    0.0100    0.0100    0.0100    0.0100
0.0100    0.0100    0.0100    0.0100    0.0100    0.0100    0.0100    0.0100
0.0100    0.0100    0.0100    0.0100    0.0100    0.0100    0.0100    0.0100
0.0100    0.0100    0.0100    0.0100    0.0100    0.0100    0.0100    0.0100
0.0100    0.0100    0.0100    0.0100    0.0100    0.0100    0.0100    0.0100
0.0100    0.0100    0.0100    0.0100    0.0100    0.0100    0.0100    0.0100
0.0100    0.0100    0.0100    0.0100    0.0100    0.0100    0.0100    0.0100
0.0100    0.0100    0.0100    0.0100    0.0100    0.0100    0.0100    0.0100
0.0100    0.0100    0.0100    0.0100    0.0100    0.0100    0.0100    0.0100
0.0100    0.0100    0.0100    0.0100    0.0100    0.0100    0.0100    0.0100
0.0100    0.0100    0.0100    0.0100    0.0100    0.0100    0.0100    0.0100
0.0100    0.0100    0.0100    0.0100    0.0100    0.0100    0.0100    0.0100
0.0100    0.0100    0.0100    0.0100    0.0100    0.0100    0.0100    0.0100
0.0100    0.0100    0.0100    0.0100    0.0100    0.0100    0.0100    0.0100
0.0100    0.0100    0.0100    0.0100    0.0100    0.0100    0.0100    0.0100
0.0100    0.0100    0.0100    0.0100    0.0100    0.0100    0.0100    0.0100
0.0100    0.0100    0.0100    0.0100    0.0100    0.0100    0.0100    0.0100
0.0100    0.0100    0.0100    0.0100    0.0100    0.0100    0.0100    0.0100
0.0100    0.0100
</PP_RAB>
</PP_MESH>
<PP_LOCAL type="real"  size=" 938" columns="4">
-2.1479988495E+01   -2.1479259775E+01   -2.1477074847E+01   -2.1473437418E+01
-2.1468353604E+01   -2.1461831843E+01   -2.1453882780E+01   -2.1444519118E+01
-2.1433755444E+01   -2.1421608037E+01   -2.1408094652E+01   -2.1393234297E+01
-2.1377046998E+01   -2.1359553562E+01   -2.1340775337E+01   -2.1320733979E+01
-2.1299451227E+01   -2.1276948684E+01   -2.1253247619E+01   -2.1228368773E+01
-2.1202332194E+01   -2.1175157082E+01   -2.1146861654E+01   -2.1117463027E+01
-2.1086977119E+01   -2.1055418570E+01   -2.1022800674E+01   -2.0989135330E+01
-2.0954433004E+01   -2.0918702710E+01   -2.0881951992E+01   -2.0844186923E+01
-2.0805412111E+01   -2.0765630712E+01   -2.0724844449E+01   -2.0683053634E+01
-2.0640257199E+01   -2.0596452726E+01   -2.0551636485E+01   -2.0505803471E+01
-2.0458947446E+01   -2.0411060984E+01   -2.0362135518E+01   -2.0312161386E+01
-2.0261127892E+01   -2.0209023353E+01   -2.0155835164E+01   -2.0101549858E+01
-2.0046153171E+01   -1.9989630108E+01   -1.9931965014E+01   -1.9873141644E+01
-1.9813143235E+01   -1.9751952577E+01   -1.9689552083E+01   -1.9625923862E+01
-1.9561049783E+01   -1.9494911546E+01   -1.9427490747E+01   -1.9358768947E+01
-1.9288727741E+01   -1.9217348843E+01   -1.9144614172E+01   -1.9070505967E+01
-1.8995006921E+01   -1.8918100345E+01   -1.8839770384E+01   -1.8760002267E+01
-1.8678782618E+01   -1.8596099828E+01   -1.8511944476E+01   -1.8426309816E+01
-1.8339192302E+01   -1.8250592155E+01   -1.8160513944E+01   -1.8068967153E+01
-1.7975966715E+01   -1.7881533481E+01   -1.7785694578E+01   -1.7688483648E+01
-1.7589940921E+01   -1.7490113119E+01   -1.7389053172E+01   -1.7286819759E+01
-1.7183476668E+01   -1.7079092028E+01   -1.6973737424E+01   -1.6867486945E+01
-1.6760416219E+01   -1.6652601460E+01   -1.6544118593E+01   -1.6435042473E+01
-1.6325446231E+01   -1.6215400764E+01   -1.6104974375E+01   -1.5994232555E+01
-1.5883237899E+01   -1.5772050137E+01   -1.5660726262E+01   -1.5549320727E+01
-1.5437885689E+01   -1.5326471285E+01   -1.5215125916E+01   -1.5103896519E+01
-1.4992828832E+01   -1.4881967616E+01   -1.4771356859E+01   -1.4661039928E+01
-1.4551059693E+01   -1.4441458602E+01   -1.4332278728E+01   -1.4223561776E+01
-1.4115349054E+01   -1.4007681422E+01   -1.3900599218E+01   -1.3794142152E+01
-1.3688349204E+01   -1.3583258489E+01   -1.3478907133E+01   -1.3375331135E+01
-1.3272565234E+01   -1.3170642777E+01   -1.3069595595E+01   -1.2969453888E+01
-1.2870246122E+01   -1.2771998930E+01   -1.2674737041E+01   -1.2578483204E+01
-1.2483258140E+01   -1.2389080503E+01   -1.2295966848E+01   -1.2203931620E+01
-1.2112987147E+01   -1.2023143646E+01   -1.1934409235E+01   -1.1846789957E+01
-1.1760289805E+01   -1.1674910757E+01   -1.1590652808E+01   -1.1507514011E+01
-1.1425490519E+01   -1.1344576622E+01   -1.1264764792E+01   -1.1186045724E+01
-1.1108408372E+01   -1.1031839989E+01   -1.0956326159E+01   -1.0881850837E+01
-1.0808396363E+01   -1.0735943533E+01   -1.0664471579E+01   -1.0593958073E+01
-1.0524379433E+01   -1.0455711715E+01   -1.0387931127E+01   -1.0321014943E+01
-1.0254944425E+01   -1.0189705488E+01   -1.0125289844E+01   -1.0061691764E+01
-9.9988990228E+00   -9.9368943758E+00   -9.8756587954E+00   -9.8151732094E+00
-9.7554235564E+00   -9.6963976416E+00   -9.6380808027E+00   -9.5804584177E+00
-9.5235173575E+00   -9.4672449639E+00   -9.4116287830E+00   -9.3566567950E+00
-9.3023174136E+00   -9.2485994352E+00   -9.1954920231E+00   -9.1429846937E+00
-9.0910672988E+00   -9.0397300081E+00   -8.9889632919E+00   -8.9387579033E+00
-8.8891048618E+00   -8.8399954361E+00   -8.7914211281E+00   -8.7433736571E+00
-8.6958449446E+00   -8.6488271003E+00   -8.6023124085E+00   -8.5562933151E+00
-8.5107624163E+00   -8.4657124476E+00   -8.4211362740E+00   -8.3770268811E+00
-8.3333773673E+00   -8.2901809374E+00   -8.2474308959E+00   -8.2051206431E+00
-8.1632436704E+00   -8.1217935576E+00   -8.0807639705E+00   -8.0401486592E+00
-7.9999414576E+00   -7.9601362832E+00   -7.9207271369E+00   -7.8817081044E+00
-7.8430733566E+00   -7.8048171520E+00   -7.7669338373E+00   -7.7294178501E+00
-7.6922637198E+00   -7.6554660703E+00   -7.6190196209E+00   -7.5829191884E+00
-7.5471596882E+00   -7.5117361353E+00   -7.4766436456E+00   -7.4418774357E+00
-7.4074328236E+00   -7.3733052279E+00   -7.3394901680E+00   -7.3059832623E+00
-7.2727802272E+00   -7.2398768756E+00   -7.2072691146E+00   -7.1749529432E+00
-7.1429244496E+00   -7.1111798087E+00   -7.0797152786E+00   -7.0485271976E+00
-7.0176119809E+00   -6.9869661169E+00   -6.9565861641E+00   -6.9264687472E+00
-6.8966105542E+00   -6.8670083328E+00   -6.8376588870E+00   -6.8085590745E+00
-6.7797058035E+00   -6.7510960303E+00   -6.7227267568E+00   -6.6945950281E+00
-6.6666979311E+00   -6.6390325923E+00   -6.6115961770E+00   -6.5843858876E+00
-6.5573989629E+00   -6.5306326778E+00   -6.5040843425E+00   -6.4777513023E+00
-6.4516309376E+00   -6.4257206640E+00   -6.4000179327E+00   -6.3745202303E+00
-6.3492250796E+00   -6.3241300399E+00   -6.2992327072E+00   -6.2745307148E+00
-6.2500217335E+00   -6.2257034722E+00   -6.2015736773E+00   -6.1776301338E+00
-6.1538706644E+00   -6.1302931298E+00   -6.1068954285E+00   -6.0836754958E+00
-6.0606313041E+00   -6.0377608615E+00   -6.0150622112E+00   -5.9925334307E+00
-5.9701726256E+00   -5.9479779426E+00   -5.9259475677E+00   -5.9040797236E+00
-5.8823726490E+00   -5.8608244992E+00   -5.8394335263E+00   -5.8181979152E+00
-5.7971163830E+00   -5.7761875160E+00   -5.7554100330E+00   -5.7347821120E+00
-5.7143018279E+00   -5.6939672276E+00   -5.6737765096E+00   -5.6537281882E+00
-5.6338207701E+00   -5.6140528585E+00   -5.5944230409E+00   -5.5749299581E+00
-5.5555722915E+00   -5.5363486564E+00   -5.5172576429E+00   -5.4982978548E+00
-5.4794678996E+00   -5.4607664702E+00   -5.4421922567E+00   -5.4237439752E+00
-5.4054203483E+00   -5.3872201148E+00   -5.3691420321E+00   -5.3511848742E+00
-5.3333474322E+00   -5.3156285130E+00   -5.2980269392E+00   -5.2805415490E+00
-5.2631711958E+00   -5.2459147481E+00   -5.2287710893E+00   -5.2117391172E+00
-5.1948177439E+00   -5.1780058957E+00   -5.1613025127E+00   -5.1447065486E+00
-5.1282169705E+00   -5.1118327588E+00   -5.0955529068E+00   -5.0793764206E+00
-5.0633023190E+00   -5.0473296329E+00   -5.0314574056E+00   -5.0156846924E+00
-5.0000105604E+00   -4.9844340882E+00   -4.9689543660E+00   -4.9535704952E+00
-4.9382815883E+00   -4.9230867686E+00   -4.9079851704E+00   -4.8929759384E+00
-4.8780582278E+00   -4.8632312041E+00   -4.8484940428E+00   -4.8338459295E+00
-4.8192860596E+00   -4.8048136380E+00   -4.7904278792E+00   -4.7761280073E+00
-4.7619132553E+00   -4.7477828655E+00   -4.7337360892E+00   -4.7197721863E+00
-4.7058904256E+00   -4.6920900845E+00   -4.6783704488E+00   -4.6647308126E+00
-4.6511704781E+00   -4.6376887559E+00   -4.6242849642E+00   -4.6109584294E+00
-4.5977084854E+00   -4.5845344738E+00   -4.5714357438E+00   -4.5584116519E+00
-4.5454615620E+00   -4.5325848452E+00   -4.5197808796E+00   -4.5070490505E+00
-4.4943887500E+00   -4.4817993768E+00   -4.4692803367E+00   -4.4568310420E+00
-4.4444509113E+00   -4.4321393699E+00   -4.4198958494E+00   -4.4077197876E+00
-4.3956106285E+00   -4.3835678222E+00   -4.3715908247E+00   -4.3596790983E+00
-4.3478321106E+00   -4.3360493354E+00   -4.3243302520E+00   -4.3126743454E+00
-4.3010811061E+00   -4.2895500299E+00   -4.2780806184E+00   -4.2666723780E+00
-4.2553248208E+00   -4.2440374639E+00   -4.2328098293E+00   -4.2216414445E+00
-4.2105318415E+00   -4.1994805576E+00   -4.1884871347E+00   -4.1775511195E+00
-4.1666720636E+00   -4.1558495231E+00   -4.1450830588E+00   -4.1343722358E+00
-4.1237166241E+00   -4.1131157977E+00   -4.1025693352E+00   -4.0920768196E+00
-4.0816378378E+00   -4.0712519814E+00   -4.0609188456E+00   -4.0506380301E+00
-4.0404091385E+00   -4.0302317785E+00   -4.0201055615E+00   -4.0100301031E+00
-4.0000050224E+00   -3.9900299427E+00   -3.9801044907E+00   -3.9702282970E+00
-3.9604009958E+00   -3.9506222250E+00   -3.9408916258E+00   -3.9312088432E+00
-3.9215735257E+00   -3.9119853249E+00   -3.9024438963E+00   -3.8929488983E+00
-3.8834999928E+00   -3.8740968450E+00   -3.8647391234E+00   -3.8554264995E+00
-3.8461586481E+00   -3.8369352470E+00   -3.8277559773E+00   -3.8186205230E+00
-3.8095285710E+00   -3.8004798114E+00   -3.7914739371E+00   -3.7825106439E+00
-3.7735896305E+00   -3.7647105986E+00   -3.7558732523E+00   -3.7470772989E+00
-3.7383224483E+00   -3.7296084128E+00   -3.7209349079E+00   -3.7123016513E+00
-3.7037083636E+00   -3.6951547678E+00   -3.6866405895E+00   -3.6781655569E+00
-3.6697294007E+00   -3.6613318539E+00   -3.6529726520E+00   -3.6446515331E+00
-3.6363682375E+00   -3.6281225078E+00   -3.6199140892E+00   -3.6117427288E+00
-3.6036081763E+00   -3.5955101836E+00   -3.5874485047E+00   -3.5794228959E+00
-3.5714331157E+00   -3.5634789247E+00   -3.5555600855E+00   -3.5476763631E+00
-3.5398275243E+00   -3.5320133382E+00   -3.5242335757E+00   -3.5164880099E+00
-3.5087764158E+00   -3.5010985704E+00   -3.4934542526E+00   -3.4858432432E+00
-3.4782653251E+00   -3.4707202829E+00   -3.4632079031E+00   -3.4557279741E+00
-3.4482802860E+00   -3.4408646309E+00   -3.4334808025E+00   -3.4261285964E+00
-3.4188078099E+00   -3.4115182419E+00   -3.4042596932E+00   -3.3970319663E+00
-3.3898348652E+00   -3.3826681957E+00   -3.3755317652E+00   -3.3684253827E+00
-3.3613488587E+00   -3.3543020056E+00   -3.3472846371E+00   -3.3402965686E+00
-3.3333376169E+00   -3.3264076003E+00   -3.3195063389E+00   -3.3126336540E+00
-3.3057893685E+00   -3.2989733067E+00   -3.2921852945E+00   -3.2854251589E+00
-3.2786927286E+00   -3.2719878337E+00   -3.2653103056E+00   -3.2586599771E+00
-3.2520366823E+00   -3.2454402567E+00   -3.2388705371E+00   -3.2323273617E+00