<UPF version="2.0.1">
<PP_INFO>

This pseudopotential file has been produced using the code
ONCVPSP  (Optimized Norm-Conservinng Vanderbilt PSeudopotential)
scalar-relativistic version 3.2.3 08/16/2016 by D. R. Hamann
The code is available through a link at URL www.mat-simresearch.com.
Documentation with the package provides a full discription of the
input data below.


While it is not required under the terms of the GNU GPL, it is
suggested that you cite D. R. Hamann, Phys. Rev. B 88, 085117 (2013)
in any publication using these pseudopotentials.

<PP_INPUTFILE>
# ATOM AND REFERENCE CONFIGURATION
# atsym  z   nc   nv     iexc    psfile
Ne 10.00    1    2       4      upf
#
#   n    l    f        energy (Ha)
1    0    2.00
2    0    2.00
2    1    6.00
#
# PSEUDOPOTENTIAL AND OPTIMIZATION
# lmax
1
#
#   l,   rc,      ep,       ncon, nbas, qcut
0   1.30000  -1.33786    4    7   8.00000
1   1.70000  -0.49002    4    7   8.00000
#
# LOCAL POTENTIAL
# lloc, lpopt,  rc(5),   dvloc0
4    5   1.30000      0.00000
#
# VANDERBILT-KLEINMAN-BYLANDER PROJECTORs
# l, nproj, debl
0    2   1.50000
1    2   1.50000
#
# MODEL CORE CHARGE
# icmod, fcfact, rcfact
0   0.00000   0.00000
#
# LOG DERIVATIVE ANALYSIS
# epsh1, epsh2, depsh
-12.00   12.00    0.02
#
# OUTPUT GRID
# rlmax, drl
4.00    0.01
#
# TEST CONFIGURATIONS
# ncnf
0
# nvcnf
#   n    l    f
</PP_INPUTFILE>
</PP_INFO>
<!--                               -->
<!-- END OF HUMAN READABLE SECTION -->
<!--                               -->
<PP_HEADER
generated="Generated using ONCVPSP code by D. R. Hamann"
author="anonymous"
date="170120"
comment=""
element="Ne"
pseudo_type="NC"
relativistic="scalar"
is_ultrasoft="F"
is_paw="F"
is_coulomb="F"
has_so="F"
has_wfc="F"
has_gipaw="F"
core_correction="F"
functional="PBE"
z_valence="    8.00"
total_psenergy="  -6.67193278931E+01"
rho_cutoff="   7.57000000000E+00"
l_max="1"
l_local="-1"
mesh_size="   758"
number_of_wfc="2"
number_of_proj="4"/>
<PP_MESH>
<PP_R type="real"  size=" 758" columns="8">
0.0000    0.0100    0.0200    0.0300    0.0400    0.0500    0.0600    0.0700
0.0800    0.0900    0.1000    0.1100    0.1200    0.1300    0.1400    0.1500
0.1600    0.1700    0.1800    0.1900    0.2000    0.2100    0.2200    0.2300
0.2400    0.2500    0.2600    0.2700    0.2800    0.2900    0.3000    0.3100
0.3200    0.3300    0.3400    0.3500    0.3600    0.3700    0.3800    0.3900
0.4000    0.4100    0.4200    0.4300    0.4400    0.4500    0.4600    0.4700
0.4800    0.4900    0.5000    0.5100    0.5200    0.5300    0.5400    0.5500
0.5600    0.5700    0.5800    0.5900    0.6000    0.6100    0.6200    0.6300
0.6400    0.6500    0.6600    0.6700    0.6800    0.6900    0.7000    0.7100
0.7200    0.7300    0.7400    0.7500    0.7600    0.7700    0.7800    0.7900
0.8000    0.8100    0.8200    0.8300    0.8400    0.8500    0.8600    0.8700
0.8800    0.8900    0.9000    0.9100    0.9200    0.9300    0.9400    0.9500
0.9600    0.9700    0.9800    0.9900    1.0000    1.0100    1.0200    1.0300
1.0400    1.0500    1.0600    1.0700    1.0800    1.0900    1.1000    1.1100
1.1200    1.1300    1.1400    1.1500    1.1600    1.1700    1.1800    1.1900
1.2000    1.2100    1.2200    1.2300    1.2400    1.2500    1.2600    1.2700
1.2800    1.2900    1.3000    1.3100    1.3200    1.3300    1.3400    1.3500
1.3600    1.3700    1.3800    1.3900    1.4000    1.4100    1.4200    1.4300
1.4400    1.4500    1.4600    1.4700    1.4800    1.4900    1.5000    1.5100
1.5200    1.5300    1.5400    1.5500    1.5600    1.5700    1.5800    1.5900
1.6000    1.6100    1.6200    1.6300    1.6400    1.6500    1.6600    1.6700
1.6800    1.6900    1.7000    1.7100    1.7200    1.7300    1.7400    1.7500
1.7600    1.7700    1.7800    1.7900    1.8000    1.8100    1.8200    1.8300
1.8400    1.8500    1.8600    1.8700    1.8800    1.8900    1.9000    1.9100
1.9200    1.9300    1.9400    1.9500    1.9600    1.9700    1.9800    1.9900
2.0000    2.0100    2.0200    2.0300    2.0400    2.0500    2.0600    2.0700
2.0800    2.0900    2.1000    2.1100    2.1200    2.1300    2.1400    2.1500
2.1600    2.1700    2.1800    2.1900    2.2000    2.2100    2.2200    2.2300
2.2400    2.2500    2.2600    2.2700    2.2800    2.2900    2.3000    2.3100
2.3200    2.3300    2.3400    2.3500    2.3600    2.3700    2.3800    2.3900
2.4000    2.4100    2.4200    2.4300    2.4400    2.4500    2.4600    2.4700
2.4800    2.4900    2.5000    2.5100    2.5200    2.5300    2.5400    2.5500
2.5600    2.5700    2.5800    2.5900    2.6000    2.6100    2.6200    2.6300
2.6400    2.6500    2.6600    2.6700    2.6800    2.6900    2.7000    2.7100
2.7200    2.7300    2.7400    2.7500    2.7600    2.7700    2.7800    2.7900
2.8000    2.8100    2.8200    2.8300    2.8400    2.8500    2.8600    2.8700
2.8800    2.8900    2.9000    2.9100    2.9200    2.9300    2.9400    2.9500
2.9600    2.9700    2.9800    2.9900    3.0000    3.0100    3.0200    3.0300
3.0400    3.0500    3.0600    3.0700    3.0800    3.0900    3.1000    3.1100
3.1200    3.1300    3.1400    3.1500    3.1600    3.1700    3.1800    3.1900
3.2000    3.2100    3.2200    3.2300    3.2400    3.2500    3.2600    3.2700
3.2800    3.2900    3.3000    3.3100    3.3200    3.3300    3.3400    3.3500
3.3600    3.3700    3.3800    3.3900    3.4000    3.4100    3.4200    3.4300
3.4400    3.4500    3.4600    3.4700    3.4800    3.4900    3.5000    3.5100
3.5200    3.5300    3.5400    3.5500    3.5600    3.5700    3.5800    3.5900
3.6000    3.6100    3.6200    3.6300    3.6400    3.6500    3.6600    3.6700
3.6800    3.6900    3.7000    3.7100    3.7200    3.7300    3.7400    3.7500
3.7600    3.7700    3.7800    3.7900    3.8000    3.8100    3.8200    3.8300
3.8400    3.8500    3.8600    3.8700    3.8800    3.8900    3.9000    3.9100
3.9200    3.9300    3.9400    3.9500    3.9600    3.9700    3.9800    3.9900
4.0000    4.0100    4.0200    4.0300    4.0400    4.0500    4.0600    4.0700
4.0800    4.0900    4.1000    4.1100    4.1200    4.1300    4.1400    4.1500
4.1600    4.1700    4.1800    4.1900    4.2000    4.2100    4.2200    4.2300
4.2400    4.2500    4.2600    4.2700    4.2800    4.2900    4.3000    4.3100
4.3200    4.3300    4.3400    4.3500    4.3600    4.3700    4.3800    4.3900
4.4000    4.4100    4.4200    4.4300    4.4400    4.4500    4.4600    4.4700
4.4800    4.4900    4.5000    4.5100    4.5200    4.5300    4.5400    4.5500
4.5600    4.5700    4.5800    4.5900    4.6000    4.6100    4.6200    4.6300
4.6400    4.6500    4.6600    4.6700    4.6800    4.6900    4.7000    4.7100
4.7200    4.7300    4.7400    4.7500    4.7600    4.7700    4.7800    4.7900
4.8000    4.8100    4.8200    4.8300    4.8400    4.8500    4.8600    4.8700
4.8800    4.8900    4.9000    4.9100    4.9200    4.9300    4.9400    4.9500
4.9600    4.9700    4.9800    4.9900    5.0000    5.0100    5.0200    5.0300
5.0400    5.0500    5.0600    5.0700    5.0800    5.0900    5.1000    5.1100
5.1200    5.1300    5.1400    5.1500    5.1600    5.1700    5.1800    5.1900
5.2000    5.2100    5.2200    5.2300    5.2400    5.2500    5.2600    5.2700
5.2800    5.2900    5.3000    5.3100    5.3200    5.3300    5.3400    5.3500
5.3600    5.3700    5.3800    5.3900    5.4000    5.4100    5.4200    5.4300
5.4400    5.4500    5.4600    5.4700    5.4800    5.4900    5.5000    5.5100
5.5200    5.5300    5.5400    5.5500    5.5600    5.5700    5.5800    5.5900
5.6000    5.6100    5.6200    5.6300    5.6400    5.6500    5.6600    5.6700
5.6800    5.6900    5.7000    5.7100    5.7200    5.7300    5.7400    5.7500
5.7600    5.7700    5.7800    5.7900    5.8000    5.8100    5.8200    5.8300
5.8400    5.8500    5.8600    5.8700    5.8800    5.8900    5.9000    5.9100
5.9200    5.9300    5.9400    5.9500    5.9600    5.9700    5.9800    5.9900
6.0000    6.0100    6.0200    6.0300    6.0400    6.0500    6.0600    6.0700
6.0800    6.0900    6.1000    6.1100    6.1200    6.1300    6.1400    6.1500
6.1600    6.1700    6.1800    6.1900    6.2000    6.2100    6.2200    6.2300
6.2400    6.2500    6.2600    6.2700    6.2800    6.2900    6.3000    6.3100
6.3200    6.3300    6.3400    6.3500    6.3600    6.3700    6.3800    6.3900
6.4000    6.4100    6.4200    6.4300    6.4400    6.4500    6.4600    6.4700
6.4800    6.4900    6.5000    6.5100    6.5200    6.5300    6.5400    6.5500
6.5600    6.5700    6.5800    6.5900    6.6000    6.6100    6.6200    6.6300
6.6400    6.6500    6.6600    6.6700    6.6800    6.6900    6.7000    6.7100
6.7200    6.7300    6.7400    6.7500    6.7600    6.7700    6.7800    6.7900
6.8000    6.8100    6.8200    6.8300    6.8400    6.8500    6.8600    6.8700
6.8800    6.8900    6.9000    6.9100    6.9200    6.9300    6.9400    6.9500
6.9600    6.9700    6.9800    6.9900    7.0000    7.0100    7.0200    7.0300
7.0400    7.0500    7.0600    7.0700    7.0800    7.0900    7.1000    7.1100
7.1200    7.1300    7.1400    7.1500    7.1600    7.1700    7.1800    7.1900
7.2000    7.2100    7.2200    7.2300    7.2400    7.2500    7.2600    7.2700
7.2800    7.2900    7.3000    7.3100    7.3200    7.3300    7.3400    7.3500
7.3600    7.3700    7.3800    7.3900    7.4000    7.4100    7.4200    7.4300
7.4400    7.4500    7.4600    7.4700    7.4800    7.4900    7.5000    7.5100
7.5200    7.5300    7.5400    7.5500    7.5600    7.5700
</PP_R>
<PP_RAB type="real"  size=" 758" columns="8">
0.0100    0.0100    0.0100    0.0100    0.0100    0.0100    0.0100    0.0100
0.0100    0.0100    0.0100    0.0100    0.0100    0.0100    0.0100    0.0100
0.0100    0.0100    0.0100    0.0100    0.0100    0.0100    0.0100    0.0100
0.0100    0.0100    0.0100    0.0100    0.0100    0.0100    0.0100    0.0100
0.0100    0.0100    0.0100    0.0100    0.0100    0.0100    0.0100    0.0100
0.0100    0.0100    0.0100    0.0100    0.0100    0.0100    0.0100    0.0100
0.0100    0.0100    0.0100    0.0100    0.0100    0.0100    0.0100    0.0100
0.0100    0.0100    0.0100    0.0100    0.0100    0.0100    0.0100    0.0100
0.0100    0.0100    0.0100    0.0100    0.0100    0.0100    0.0100    0.0100
0.0100    0.0100    0.0100    0.0100    0.0100    0.0100    0.0100    0.0100
0.0100    0.0100    0.0100    0.0100    0.0100    0.0100    0.0100    0.0100
0.0100    0.0100    0.0100    0.0100    0.0100    0.0100    0.0100    0.0100
0.0100    0.0100    0.0100    0.0100    0.0100    0.0100    0.0100    0.0100
0.0100    0.0100    0.0100    0.0100    0.0100    0.0100    0.0100    0.0100
0.0100    0.0100    0.0100    0.0100    0.0100    0.0100    0.0100    0.0100
0.0100    0.0100    0.0100    0.0100    0.0100    0.0100    0.0100    0.0100
0.0100    0.0100    0.0100    0.0100    0.0100    0.0100    0.0100    0.0100
0.0100    0.0100    0.0100    0.0100    0.0100    0.0100    0.0100    0.0100
0.0100    0.0100    0.0100    0.0100    0.0100    0.0100    0.0100    0.0100
0.0100    0.0100    0.0100    0.0100    0.0100    0.0100    0.0100    0.0100
0.0100    0.0100    0.0100    0.0100    0.0100    0.0100    0.0100    0.0100
0.0100    0.0100    0.0100    0.0100    0.0100    0.0100    0.0100    0.0100
0.0100    0.0100    0.0100    0.0100    0.0100    0.0100    0.0100    0.0100
0.0100    0.0100    0.0100    0.0100    0.0100    0.0100    0.0100    0.0100
0.0100    0.0100    0.0100    0.0100    0.0100    0.0100    0.0100    0.0100
0.0100    0.0100    0.0100    0.0100    0.0100    0.0100    0.0100    0.0100
0.0100    0.0100    0.0100    0.0100    0.0100    0.0100    0.0100    0.0100
0.0100    0.0100    0.0100    0.0100    0.0100    0.0100    0.0100    0.0100
0.0100    0.0100    0.0100    0.0100    0.0100    0.0100    0.0100    0.0100
0.0100    0.0100    0.0100    0.0100    0.0100    0.0100    0.0100    0.0100
0.0100    0.0100    0.0100    0.0100    0.0100    0.0100    0.0100    0.0100
0.0100    0.0100    0.0100    0.0100    0.0100    0.0100    0.0100    0.0100
0.0100    0.0100    0.0100    0.0100    0.0100    0.0100    0.0100    0.0100
0.0100    0.0100    0.0100    0.0100    0.0100    0.0100    0.0100    0.0100
0.0100    0.0100    0.0100    0.0100    0.0100    0.0100    0.0100    0.0100
0.0100    0.0100    0.0100    0.0100    0.0100    0.0100    0.0100    0.0100
0.0100    0.0100    0.0100    0.0100    0.0100    0.0100    0.0100    0.0100
0.0100    0.0100    0.0100    0.0100    0.0100    0.0100    0.0100    0.0100
0.0100    0.0100    0.0100    0.0100    0.0100    0.0100    0.0100    0.0100
0.0100    0.0100    0.0100    0.0100    0.0100    0.0100    0.0100    0.0100
0.0100    0.0100    0.0100    0.0100    0.0100    0.0100    0.0100    0.0100
0.0100    0.0100    0.0100    0.0100    0.0100    0.0100    0.0100    0.0100
0.0100    0.0100    0.0100    0.0100    0.0100    0.0100    0.0100    0.0100
0.0100    0.0100    0.0100    0.0100    0.0100    0.0100    0.0100    0.0100
0.0100    0.0100    0.0100    0.0100    0.0100    0.0100    0.0100    0.0100
0.0100    0.0100    0.0100    0.0100    0.0100    0.0100    0.0100    0.0100
0.0100    0.0100    0.0100    0.0100    0.0100    0.0100    0.0100    0.0100
0.0100    0.0100    0.0100    0.0100    0.0100    0.0100    0.0100    0.0100
0.0100    0.0100    0.0100    0.0100    0.0100    0.0100    0.0100    0.0100
0.0100    0.0100    0.0100    0.0100    0.0100    0.0100    0.0100    0.0100
0.0100    0.0100    0.0100    0.0100    0.0100    0.0100    0.0100    0.0100
0.0100    0.0100    0.0100    0.0100    0.0100    0.0100    0.0100    0.0100
0.0100    0.0100    0.0100    0.0100    0.0100    0.0100    0.0100    0.0100
0.0100    0.0100    0.0100    0.0100    0.0100    0.0100    0.0100    0.0100
0.0100    0.0100    0.0100    0.0100    0.0100    0.0100    0.0100    0.0100
0.0100    0.0100    0.0100    0.0100    0.0100    0.0100    0.0100    0.0100
0.0100    0.0100    0.0100    0.0100    0.0100    0.0100    0.0100    0.0100
0.0100    0.0100    0.0100    0.0100    0.0100    0.0100    0.0100    0.0100
0.0100    0.0100    0.0100    0.0100    0.0100    0.0100    0.0100    0.0100
0.0100    0.0100    0.0100    0.0100    0.0100    0.0100    0.0100    0.0100
0.0100    0.0100    0.0100    0.0100    0.0100    0.0100    0.0100    0.0100
0.0100    0.0100    0.0100    0.0100    0.0100    0.0100    0.0100    0.0100
0.0100    0.0100    0.0100    0.0100    0.0100    0.0100    0.0100    0.0100
0.0100    0.0100    0.0100    0.0100    0.0100    0.0100    0.0100    0.0100
0.0100    0.0100    0.0100    0.0100    0.0100    0.0100    0.0100    0.0100
0.0100    0.0100    0.0100    0.0100    0.0100    0.0100    0.0100    0.0100
0.0100    0.0100    0.0100    0.0100    0.0100    0.0100    0.0100    0.0100
0.0100    0.0100    0.0100    0.0100    0.0100    0.0100    0.0100    0.0100
0.0100    0.0100    0.0100    0.0100    0.0100    0.0100    0.0100    0.0100
0.0100    0.0100    0.0100    0.0100    0.0100    0.0100    0.0100    0.0100
0.0100    0.0100    0.0100    0.0100    0.0100    0.0100    0.0100    0.0100
0.0100    0.0100    0.0100    0.0100    0.0100    0.0100    0.0100    0.0100
0.0100    0.0100    0.0100    0.0100    0.0100    0.0100    0.0100    0.0100
0.0100    0.0100    0.0100    0.0100    0.0100    0.0100    0.0100    0.0100
0.0100    0.0100    0.0100    0.0100    0.0100    0.0100    0.0100    0.0100
0.0100    0.0100    0.0100    0.0100    0.0100    0.0100    0.0100    0.0100
0.0100    0.0100    0.0100    0.0100    0.0100    0.0100    0.0100    0.0100
0.0100    0.0100    0.0100    0.0100    0.0100    0.0100    0.0100    0.0100
0.0100    0.0100    0.0100    0.0100    0.0100    0.0100    0.0100    0.0100
0.0100    0.0100    0.0100    0.0100    0.0100    0.0100    0.0100    0.0100
0.0100    0.0100    0.0100    0.0100    0.0100    0.0100    0.0100    0.0100
0.0100    0.0100    0.0100    0.0100    0.0100    0.0100    0.0100    0.0100
0.0100    0.0100    0.0100    0.0100    0.0100    0.0100    0.0100    0.0100
0.0100    0.0100    0.0100    0.0100    0.0100    0.0100    0.0100    0.0100
0.0100    0.0100    0.0100    0.0100    0.0100    0.0100    0.0100    0.0100
0.0100    0.0100    0.0100    0.0100    0.0100    0.0100    0.0100    0.0100
0.0100    0.0100    0.0100    0.0100    0.0100    0.0100    0.0100    0.0100
0.0100    0.0100    0.0100    0.0100    0.0100    0.0100    0.0100    0.0100
0.0100    0.0100    0.0100    0.0100    0.0100    0.0100    0.0100    0.0100
0.0100    0.0100    0.0100    0.0100    0.0100    0.0100    0.0100    0.0100
0.0100    0.0100    0.0100    0.0100    0.0100    0.0100    0.0100    0.0100
0.0100    0.0100    0.0100    0.0100    0.0100    0.0100    0.0100    0.0100
0.0100    0.0100    0.0100    0.0100    0.0100    0.0100    0.0100    0.0100
0.0100    0.0100    0.0100    0.0100    0.0100    0.0100    0.0100    0.0100
0.0100    0.0100    0.0100    0.0100    0.0100    0.0100
</PP_RAB>
</PP_MESH>
<PP_LOCAL type="real"  size=" 758" columns="4">
-2.6967363503E+01   -2.6978425359E+01   -2.7007022959E+01   -2.7046622989E+01
-2.7088248670E+01   -2.7123723254E+01   -2.7147269850E+01   -2.7155875031E+01
-2.7148823667E+01   -2.7126930363E+01   -2.7091821514E+01   -2.7045412222E+01
-2.6989587322E+01   -2.6926039890E+01   -2.6856212032E+01   -2.6781293465E+01
-2.6702247779E+01   -2.6619848369E+01   -2.6534714392E+01   -2.6447342346E+01
-2.6358131824E+01   -2.6267405536E+01   -2.6175424338E+01   -2.6082398214E+01
-2.5988494128E+01   -2.5893841513E+01   -2.5798536031E+01   -2.5702642084E+01
-2.5606194453E+01   -2.5509199373E+01   -2.5411635292E+01   -2.5313453541E+01
-2.5214579121E+01   -2.5114911810E+01   -2.5014327781E+01   -2.4912681884E+01
-2.4809810718E+01   -2.4705536570E+01   -2.4599672202E+01   -2.4492026417E+01
-2.4382410197E+01   -2.4270643178E+01   -2.4156560105E+01   -2.4040016917E+01
-2.3920896076E+01   -2.3799110803E+01   -2.3674607979E+01   -2.3547369526E+01
-2.3417412259E+01   -2.3284786273E+01   -2.3149572075E+01   -2.3011876713E+01
-2.2871829245E+01   -2.2729575863E+01   -2.2585274984E+01   -2.2439092594E+01
-2.2291198030E+01   -2.2141760350E+01   -2.1990945369E+01   -2.1838913370E+01
-2.1685817464E+01   -2.1531802539E+01   -2.1377004711E+01   -2.1221551186E+01
-2.1065560440E+01   -2.0909142632E+01   -2.0752400170E+01   -2.0595428369E+01
-2.0438316141E+01   -2.0281146686E+01   -2.0123998157E+01   -1.9966944260E+01
-1.9810054803E+01   -1.9653396171E+01   -1.9497031729E+01   -1.9341022162E+01
-1.9185425746E+01   -1.9030298562E+01   -1.8875694664E+01   -1.8721666192E+01
-1.8568263457E+01   -1.8415534992E+01   -1.8263527571E+01   -1.8112286222E+01
-1.7961854213E+01   -1.7812273035E+01   -1.7663582379E+01   -1.7515820104E+01
-1.7369022219E+01   -1.7223222852E+01   -1.7078454239E+01   -1.6934746711E+01
-1.6792128692E+01   -1.6650626710E+01   -1.6510265417E+01   -1.6371067615E+01
-1.6233054300E+01   -1.6096244716E+01   -1.5960656415E+01   -1.5826305329E+01
-1.5693205855E+01   -1.5561370937E+01   -1.5430812165E+01   -1.5301539866E+01
-1.5173563210E+01   -1.5046890299E+01   -1.4921528271E+01   -1.4797483384E+01
-1.4674761100E+01   -1.4553366161E+01   -1.4433302648E+01   -1.4314574035E+01
-1.4197183217E+01   -1.4081132539E+01   -1.3966423793E+01   -1.3853058211E+01
-1.3741036433E+01   -1.3630358467E+01   -1.3521023628E+01   -1.3413030467E+01
-1.3306376688E+01   -1.3201059053E+01   -1.3097073278E+01   -1.2994413926E+01
-1.2893074294E+01   -1.2793046296E+01   -1.2694320344E+01   -1.2596885270E+01
-1.2500728141E+01   -1.2405834186E+01   -1.2312186756E+01   -1.2219768157E+01
-1.2128560450E+01   -1.2038547679E+01   -1.1949712611E+01   -1.1862033675E+01
-1.1775490792E+01   -1.1690065884E+01   -1.1605741149E+01   -1.1522499638E+01
-1.1440325188E+01   -1.1359202394E+01   -1.1279116587E+01   -1.1200053821E+01
-1.1122000851E+01   -1.1044945110E+01   -1.0968874674E+01   -1.0893778225E+01
-1.0819645002E+01   -1.0746464744E+01   -1.0674227619E+01   -1.0602924141E+01
-1.0532545086E+01   -1.0463081383E+01   -1.0394524003E+01   -1.0326863843E+01
-1.0260091599E+01   -1.0194197634E+01   -1.0129171850E+01   -1.0065003564E+01
-1.0001681381E+01   -9.9391930892E+00   -9.8775255622E+00   -9.8166646792E+00
-9.7565952704E+00   -9.6973010610E+00   -9.6387647544E+00   -9.5809680521E+00
-9.5238914096E+00   -9.4675144347E+00   -9.4118160423E+00   -9.3567753317E+00
-9.3023753310E+00   -9.2486039281E+00   -9.1954504214E+00   -9.1429042254E+00
-9.0909552396E+00   -9.0395933210E+00   -8.9888084723E+00   -8.9385910624E+00
-8.8889316316E+00   -8.8398209312E+00   -8.7912499171E+00   -8.7432097418E+00
-8.6956917498E+00   -8.6486874733E+00   -8.6021886262E+00   -8.5561871002E+00
-8.5106749589E+00   -8.4656444343E+00   -8.4210879218E+00   -8.3769979762E+00
-8.3333673071E+00   -8.2901887755E+00   -8.2474553895E+00   -8.2051603007E+00
-8.1632968002E+00   -8.1218583158E+00   -8.0808384076E+00   -8.0402307655E+00
-8.0000292053E+00   -7.9602276662E+00   -7.9208202071E+00   -7.8818010042E+00
-7.8431643478E+00   -7.8049046399E+00   -7.7670163907E+00   -7.7294942166E+00
-7.6923328376E+00   -7.6555270749E+00   -7.6190718485E+00   -7.5829621743E+00
-7.5471931623E+00   -7.5117600145E+00   -7.4766580225E+00   -7.4418825655E+00
-7.4074291084E+00   -7.3732931994E+00   -7.3394704686E+00   -7.3059566260E+00
-7.2727474593E+00   -7.2398388328E+00   -7.2072266850E+00   -7.1749070275E+00
-7.1428759429E+00   -7.1111295835E+00   -7.0796641700E+00   -7.0484759892E+00
-7.0175613934E+00   -6.9869167984E+00   -6.9565386826E+00   -6.9264235851E+00
-6.8965681047E+00   -6.8669688989E+00   -6.8376226820E+00   -6.8085262242E+00
-6.7796763508E+00   -6.7510699403E+00   -6.7227039238E+00   -6.6945752839E+00
-6.6666810533E+00   -6.6390183140E+00   -6.6115841963E+00   -6.5843758776E+00
-6.5573905817E+00   -6.5306255777E+00   -6.5040781790E+00   -6.4777457426E+00
-6.4516256681E+00   -6.4257153970E+00   -6.4000124116E+00   -6.3745142342E+00
-6.3492184267E+00   -6.3241225894E+00   -6.2992243603E+00   -6.2745214147E+00
-6.2500114640E+00   -6.2256922553E+00   -6.2015615707E+00   -6.1776172263E+00
-6.1538570722E+00   -6.1302789911E+00   -6.1068808981E+00   -6.0836607402E+00
-6.0606164952E+00   -6.0377461717E+00   -6.0150478081E+00   -5.9925194722E+00
-5.9701592607E+00   -5.9479652985E+00   -5.9259357384E+00   -5.9040687603E+00
-5.8823625711E+00   -5.8608154038E+00   -5.8394255172E+00   -5.8181911954E+00
-5.7971107476E+00   -5.7761825071E+00   -5.7554048313E+00   -5.7347761014E+00
-5.7142947213E+00   -5.6939591178E+00   -5.6737677402E+00   -5.6537190594E+00
-5.6338115681E+00   -5.6140437801E+00   -5.5944142297E+00   -5.5749214721E+00
-5.5555640822E+00   -5.5363406548E+00   -5.5172498041E+00   -5.4982901632E+00
-5.4794603840E+00   -5.4607591368E+00   -5.4421851101E+00   -5.4237370101E+00
-5.4054135603E+00   -5.3872135018E+00   -5.3691355922E+00   -5.3511786060E+00
-5.3333413338E+00   -5.3156225825E+00   -5.2980211747E+00   -5.2805359485E+00
-5.2631657574E+00   -5.2459094698E+00   -5.2287659690E+00   -5.2117341529E+00
-5.1948129334E+00   -5.1780012370E+00   -5.1612980035E+00   -5.1447021869E+00
-5.1282127540E+00   -5.1118286854E+00   -5.0955489742E+00   -5.0793726266E+00
-5.0632986612E+00   -5.0473261092E+00   -5.0314540137E+00   -5.0156814300E+00
-5.0000074251E+00   -4.9844310778E+00   -4.9689514782E+00   -4.9535677276E+00
-4.9382789385E+00   -4.9230842344E+00   -4.9079827494E+00   -4.8929736283E+00
-4.8780560263E+00   -4.8632291088E+00   -4.8484920514E+00   -4.8338440396E+00
-4.8192842689E+00   -4.8048119442E+00   -4.7904262801E+00   -4.7761265005E+00
-4.7619118386E+00   -4.7477815365E+00   -4.7337348457E+00   -4.7197710260E+00
-4.7058893464E+00   -4.6920890841E+00   -4.6783695249E+00   -4.6647299630E+00
-4.6511697008E+00   -4.6376880486E+00   -4.6242843248E+00   -4.6109578558E+00
-4.5977079755E+00   -4.5845340255E+00   -4.5714353551E+00   -4.5584113207E+00
-4.5454612863E+00   -4.5325846231E+00   -4.5197807091E+00   -4.5070489296E+00
-4.4943886768E+00   -4.4817993495E+00   -4.4692803535E+00   -4.4568311009E+00
-4.4444510106E+00   -4.4321395078E+00   -4.4198960241E+00   -4.4077199974E+00
-4.3956108717E+00   -4.3835680972E+00   -4.3715911299E+00   -4.3596794320E+00
-4.3478324713E+00   -4.3360497215E+00   -4.3243306621E+00   -4.3126747779E+00
-4.3010815595E+00   -4.2895505030E+00   -4.2780811096E+00   -4.2666728860E+00
-4.2553253443E+00   -4.2440380015E+00   -4.2328103798E+00   -4.2216420066E+00
-4.2105324141E+00   -4.1994811394E+00   -4.1884877245E+00   -4.1775517163E+00
-4.1666726663E+00   -4.1558501306E+00   -4.1450836700E+00   -4.1343728498E+00
-4.1237172398E+00   -4.1131164143E+00   -4.1025699517E+00   -4.0920774350E+00
-4.0816384514E+00   -4.0712525922E+00   -4.0609194529E+00   -4.0506386331E+00
-4.0404097364E+00   -4.0302323705E+00   -4.0201061470E+00   -4.0100306813E+00
-4.0000055928E+00   -3.9900305046E+00   -3.9801050434E+00   -3.9702288400E+00
-3.9604015285E+00   -3.9506227468E+00   -3.9408921363E+00   -3.9312093419E+00
-3.9215740120E+00   -3.9119857985E+00   -3.9024443566E+00   -3.8929493450E+00
-3.8835004255E+00   -3.8740972633E+00   -3.8647395269E+00   -3.8554268880E+00
-3.8461590212E+00   -3.8369356044E+00   -3.8277563188E+00   -3.8186208482E+00
-3.8095288797E+00   -3.8004801034E+00   -3.7914742122E+00   -3.7825109019E+00
-3.7735898713E+00   -3.7647108219E+00   -3.7558734581E+00   -3.7470774870E+00
-3.7383226185E+00   -3.7296085651E+00   -3.7209350421E+00   -3.7123017674E+00
-3.7037084615E+00   -3.6951548474E+00   -3.6866406509E+00   -3.6781656000E+00
-3.6697294254E+00   -3.6613318603E+00   -3.6529726401E+00   -3.6446515029E+00
-3.6363681889E+00   -3.6281224410E+00   -3.6199140041E+00   -3.6117426255E+00
-3.6036080549E+00   -3.5955100441E+00   -3.5874483472E+00   -3.5794227205E+00
-3.5714329224E+00   -3.5634787136E+00   -3.5555598568E+00   -3.5476761168E+00
-3.5398272607E+00   -3.5320130572E+00   -3.5242332776E+00   -3.5164876947E+00
-3.5087760837E+00   -3.5010982215E+00   -3.4934538870E+00   -3.4858428612E+00
-3.4782649267E+00   -3.4707198683E+00   -3.4632074725E+00   -3.4557275277E+00
-3.4482798239E+00   -3.4408641533E+00   -3.4334803096E+00   -3.4261280883E+00
-3.4188072867E+00   -3.4115177040E+00   -3.4042591407E+00   -3.3970313993E+00
-3.3898342840E+00   -3.3826676004E+00   -3.3755311560E+00   -3.3684247598E+00
-3.3613482224E+00   -3.3543013560E+00   -3.3472839744E+00   -3.3402958930E+00
-3.3333369285E+00   -3.3264068995E+00   -3.3195056258E+00   -3.3126329288E+00
-3.3057886314E+00   -3.2989725579E+00   -3.2921845341E+00   -3.2854243872E+00
-3.2786919458E+00   -3.2719870400E+00   -3.2653095012E+00   -3.2586591622E+00
-3.2520358570E+00   -3.2454394213E+00   -3.2388696918E+00   -3.2323265067E+00
-3.2258097054E+00   -3.2193191287E+00   -3.2128546186E+00   -3.2064160184E+00
-3.2000031726E+00   -3.1936159270E+00   -3.1872541286E+00   -3.1809176256E+00
-3.1746062676E+00   -3.1683199050E+00   -3.1620583898E+00   -3.1558215748E+00
-3.1496093143E+00   -3.1434214634E+00   -3.1372578787E+00   -3.1311184176E+00
-3.1250029388E+00   -3.1189113020E+00   -3.1128433682E+00   -3.1067989992E+00
-3.1007780580E+00   -3.0947804086E+00   -3.0888059163E+00   -3.0828544470E+00
-3.0769258681E+00   -3.0710200477E+00   -3.0651368549E+00   -3.0592761601E+00
-3.0534378344E+00   -3.0476217499E+00   -3.0418277798E+00   -3.0360557983E+00
-3.0303056804E+00   -3.0245773021E+00   -3.0188705404E+00   -3.0131852731E+00
-3.0075213790E+00   -3.0018787378E+00   -2.9962572302E+00   -2.9906567375E+00
-2.9850771423E+00   -2.9795183277E+00   -2.9739801779E+00   -2.9684625779E+00
-2.9629654134E+00   -2.9574885712E+00   -2.9520319389E+00   -2.9465954046E+00
-2.9411788576E+00   -2.9357821879E+00   -2.9304052863E+00   -2.9250480443E+00
-2.9197103543E+00   -2.9143921095E+00   -2.9090932038E+00   -2.9038135319E+00
-2.8985529893E+00   -2.8933114722E+00   -2.8880888776E+00   -2.8828851032E+00
-2.8777000474E+00   -2.8725336095E+00   -2.8673856893E+00   -2.8622561875E+00
-2.8571450053E+00   -2.8520520449E+00   -2.8469772089E+00   -2.8419204008E+00
-2.8368815247E+00   -2.8318604854E+00   -2.8268571883E+00   -2.8218715395E+00
-2.8169034459E+00   -2.8119528148E+00   -2.8070195544E+00   -2.8021035735E+00
-2.7972047813E+00   -2.7923230879E+00   -2.7874584039E+00   -2.7826106406E+00
-2.7777797098E+00   -2.7729655241E+00   -2.7681679965E+00   -2.7633870407E+00
-2.7586225710E+00   -2.7538745023E+00   -2.7491427500E+00   -2.7444272301E+00
-2.7397278594E+00   -2.7350445549E+00   -2.7303772344E+00   -2.7257258162E+00
-2.7210902192E+00   -2.7164703628E+00   -2.7118661670E+00   -2.7072775523E+00
-2.7027044396E+00   -2.6981467507E+00   -2.6936044075E+00   -2.6890773328E+00
-2.6845654496E+00   -2.6800686816E+00   -2.6755869531E+00   -2.6711201886E+00
-2.6666683133E+00   -2.6622312530E+00   -2.6578089338E+00   -2.6534012823E+00
-2.6490082258E+00   -2.6446296918E+00   -2.6402656084E+00   -2.6359159043E+00
-2.6315805084E+00   -2.6272593503E+00   -2.6229523600E+00   -2.6186594678E+00
-2.6143806048E+00   -2.6101157022E+00   -2.6058646918E+00   -2.6016275059E+00
-2.5974040771E+00   -2.5931943386E+00   -2.5889982238E+00   -2.5848156668E+00
-2.5806466020E+00   -2.5764909641E+00   -2.5723486884E+00   -2.5682197106E+00
-2.5641039668E+00   -2.5600013933E+00   -2.5559119271E+00   -2.5518355056E+00
-2.5477720662E+00   -2.5437215473E+00   -2.5396838871E+00   -2.5356590247E+00
-2.5316468992E+00   -2.5276474502E+00   -2.5236606179E+00   -2.5196863425E+00
-2.5157245649E+00   -2.5117752261E+00   -2.5078382678E+00   -2.5039136317E+00
-2.5000012602E+00   -2.4961010958E+00   -2.4922130815E+00   -2.4883371605E+00
-2.4844732766E+00   -2.4806213738E+00   -2.4767813963E+00   -2.4729532891E+00
-2.4691369969E+00   -2.4653324654E+00   -2.4615396401E+00   -2.4577584672E+00
-2.4539888930E+00   -2.4502308642E+00   -2.4464843279E+00   -2.4427492314E+00
-2.4390255224E+00   -2.4353131490E+00   -2.4316120593E+00   -2.4279222022E+00
-2.4242435265E+00   -2.4205759814E+00   -2.4169195166E+00   -2.4132740818E+00
-2.4096396273E+00   -2.4060161035E+00   -2.4024034612E+00   -2.3988016514E+00
-2.3952106256E+00   -2.3916303352E+00   -2.3880607323E+00   -2.3845017691E+00
-2.3809533981E+00   -2.3774155720E+00   -2.3738882439E+00   -2.3703713672E+00
-2.3668648955E+00   -2.3633687827E+00   -2.3598829829E+00   -2.3564074506E+00