<UPF version="2.0.1">
<PP_INFO>

This pseudopotential file has been produced using the code
ONCVPSP  (Optimized Norm-Conservinng Vanderbilt PSeudopotential)
scalar-relativistic version 3.2.3 08/16/2016 by D. R. Hamann
The code is available through a link at URL www.mat-simresearch.com.
Documentation with the package provides a full discription of the
input data below.


While it is not required under the terms of the GNU GPL, it is
suggested that you cite D. R. Hamann, Phys. Rev. B 88, 085117 (2013)
in any publication using these pseudopotentials.

<PP_INPUTFILE>
# ATOM AND REFERENCE CONFIGURATION
# atsym  z   nc   nv     iexc    psfile
F  9.00    1    2 -116133      upf
#
#   n    l    f        energy (Ha)
1    0    2.00
2    0    2.00
2    1    5.00
#
# PSEUDOPOTENTIAL AND OPTIMIZATION
# lmax
2
#
#   l,   rc,      ep,       ncon, nbas, qcut
0   1.30000  -1.09221    4    8   8.60000
1   1.45000  -0.40615    4    8   9.00000
2   1.60000   0.15000    4    8   5.80000
#
# LOCAL POTENTIAL
# lloc, lpopt,  rc(5),   dvloc0
4    5   0.95000      0.00000
#
# VANDERBILT-KLEINMAN-BYLANDER PROJECTORs
# l, nproj, debl
0    2   1.50000
1    2   1.50000
2    1   2.00000
#
# MODEL CORE CHARGE
# icmod, fcfact, rcfact
3   2.50000   1.85000
#
# LOG DERIVATIVE ANALYSIS
# epsh1, epsh2, depsh
-12.00   12.00    0.02
#
# OUTPUT GRID
# rlmax, drl
6.00    0.01
#
# TEST CONFIGURATIONS
# ncnf
0
# nvcnf
#   n    l    f
</PP_INPUTFILE>
</PP_INFO>
<!--                               -->
<!-- END OF HUMAN READABLE SECTION -->
<!--                               -->
<PP_HEADER
generated="Generated using ONCVPSP code by D. R. Hamann"
author="anonymous"
date="170120"
comment=""
element="F "
pseudo_type="NC"
relativistic="scalar"
is_ultrasoft="F"
is_paw="F"
is_coulomb="F"
has_so="F"
has_wfc="F"
has_gipaw="F"
core_correction="T"
functional="PBESOL"
z_valence="    7.00"
total_psenergy="  -4.76491825913E+01"
rho_cutoff="   8.31000000000E+00"
l_max="2"
l_local="-1"
mesh_size="   832"
number_of_wfc="2"
number_of_proj="5"/>
<PP_MESH>
<PP_R type="real"  size=" 832" columns="8">
0.0000    0.0100    0.0200    0.0300    0.0400    0.0500    0.0600    0.0700
0.0800    0.0900    0.1000    0.1100    0.1200    0.1300    0.1400    0.1500
0.1600    0.1700    0.1800    0.1900    0.2000    0.2100    0.2200    0.2300
0.2400    0.2500    0.2600    0.2700    0.2800    0.2900    0.3000    0.3100
0.3200    0.3300    0.3400    0.3500    0.3600    0.3700    0.3800    0.3900
0.4000    0.4100    0.4200    0.4300    0.4400    0.4500    0.4600    0.4700
0.4800    0.4900    0.5000    0.5100    0.5200    0.5300    0.5400    0.5500
0.5600    0.5700    0.5800    0.5900    0.6000    0.6100    0.6200    0.6300
0.6400    0.6500    0.6600    0.6700    0.6800    0.6900    0.7000    0.7100
0.7200    0.7300    0.7400    0.7500    0.7600    0.7700    0.7800    0.7900
0.8000    0.8100    0.8200    0.8300    0.8400    0.8500    0.8600    0.8700
0.8800    0.8900    0.9000    0.9100    0.9200    0.9300    0.9400    0.9500
0.9600    0.9700    0.9800    0.9900    1.0000    1.0100    1.0200    1.0300
1.0400    1.0500    1.0600    1.0700    1.0800    1.0900    1.1000    1.1100
1.1200    1.1300    1.1400    1.1500    1.1600    1.1700    1.1800    1.1900
1.2000    1.2100    1.2200    1.2300    1.2400    1.2500    1.2600    1.2700
1.2800    1.2900    1.3000    1.3100    1.3200    1.3300    1.3400    1.3500
1.3600    1.3700    1.3800    1.3900    1.4000    1.4100    1.4200    1.4300
1.4400    1.4500    1.4600    1.4700    1.4800    1.4900    1.5000    1.5100
1.5200    1.5300    1.5400    1.5500    1.5600    1.5700    1.5800    1.5900
1.6000    1.6100    1.6200    1.6300    1.6400    1.6500    1.6600    1.6700
1.6800    1.6900    1.7000    1.7100    1.7200    1.7300    1.7400    1.7500
1.7600    1.7700    1.7800    1.7900    1.8000    1.8100    1.8200    1.8300
1.8400    1.8500    1.8600    1.8700    1.8800    1.8900    1.9000    1.9100
1.9200    1.9300    1.9400    1.9500    1.9600    1.9700    1.9800    1.9900
2.0000    2.0100    2.0200    2.0300    2.0400    2.0500    2.0600    2.0700
2.0800    2.0900    2.1000    2.1100    2.1200    2.1300    2.1400    2.1500
2.1600    2.1700    2.1800    2.1900    2.2000    2.2100    2.2200    2.2300
2.2400    2.2500    2.2600    2.2700    2.2800    2.2900    2.3000    2.3100
2.3200    2.3300    2.3400    2.3500    2.3600    2.3700    2.3800    2.3900
2.4000    2.4100    2.4200    2.4300    2.4400    2.4500    2.4600    2.4700
2.4800    2.4900    2.5000    2.5100    2.5200    2.5300    2.5400    2.5500
2.5600    2.5700    2.5800    2.5900    2.6000    2.6100    2.6200    2.6300
2.6400    2.6500    2.6600    2.6700    2.6800    2.6900    2.7000    2.7100
2.7200    2.7300    2.7400    2.7500    2.7600    2.7700    2.7800    2.7900
2.8000    2.8100    2.8200    2.8300    2.8400    2.8500    2.8600    2.8700
2.8800    2.8900    2.9000    2.9100    2.9200    2.9300    2.9400    2.9500
2.9600    2.9700    2.9800    2.9900    3.0000    3.0100    3.0200    3.0300
3.0400    3.0500    3.0600    3.0700    3.0800    3.0900    3.1000    3.1100
3.1200    3.1300    3.1400    3.1500    3.1600    3.1700    3.1800    3.1900
3.2000    3.2100    3.2200    3.2300    3.2400    3.2500    3.2600    3.2700
3.2800    3.2900    3.3000    3.3100    3.3200    3.3300    3.3400    3.3500
3.3600    3.3700    3.3800    3.3900    3.4000    3.4100    3.4200    3.4300
3.4400    3.4500    3.4600    3.4700    3.4800    3.4900    3.5000    3.5100
3.5200    3.5300    3.5400    3.5500    3.5600    3.5700    3.5800    3.5900
3.6000    3.6100    3.6200    3.6300    3.6400    3.6500    3.6600    3.6700
3.6800    3.6900    3.7000    3.7100    3.7200    3.7300    3.7400    3.7500
3.7600    3.7700    3.7800    3.7900    3.8000    3.8100    3.8200    3.8300
3.8400    3.8500    3.8600    3.8700    3.8800    3.8900    3.9000    3.9100
3.9200    3.9300    3.9400    3.9500    3.9600    3.9700    3.9800    3.9900
4.0000    4.0100    4.0200    4.0300    4.0400    4.0500    4.0600    4.0700
4.0800    4.0900    4.1000    4.1100    4.1200    4.1300    4.1400    4.1500
4.1600    4.1700    4.1800    4.1900    4.2000    4.2100    4.2200    4.2300
4.2400    4.2500    4.2600    4.2700    4.2800    4.2900    4.3000    4.3100
4.3200    4.3300    4.3400    4.3500    4.3600    4.3700    4.3800    4.3900
4.4000    4.4100    4.4200    4.4300    4.4400    4.4500    4.4600    4.4700
4.4800    4.4900    4.5000    4.5100    4.5200    4.5300    4.5400    4.5500
4.5600    4.5700    4.5800    4.5900    4.6000    4.6100    4.6200    4.6300
4.6400    4.6500    4.6600    4.6700    4.6800    4.6900    4.7000    4.7100
4.7200    4.7300    4.7400    4.7500    4.7600    4.7700    4.7800    4.7900
4.8000    4.8100    4.8200    4.8300    4.8400    4.8500    4.8600    4.8700
4.8800    4.8900    4.9000    4.9100    4.9200    4.9300    4.9400    4.9500
4.9600    4.9700    4.9800    4.9900    5.0000    5.0100    5.0200    5.0300
5.0400    5.0500    5.0600    5.0700    5.0800    5.0900    5.1000    5.1100
5.1200    5.1300    5.1400    5.1500    5.1600    5.1700    5.1800    5.1900
5.2000    5.2100    5.2200    5.2300    5.2400    5.2500    5.2600    5.2700
5.2800    5.2900    5.3000    5.3100    5.3200    5.3300    5.3400    5.3500
5.3600    5.3700    5.3800    5.3900    5.4000    5.4100    5.4200    5.4300
5.4400    5.4500    5.4600    5.4700    5.4800    5.4900    5.5000    5.5100
5.5200    5.5300    5.5400    5.5500    5.5600    5.5700    5.5800    5.5900
5.6000    5.6100    5.6200    5.6300    5.6400    5.6500    5.6600    5.6700
5.6800    5.6900    5.7000    5.7100    5.7200    5.7300    5.7400    5.7500
5.7600    5.7700    5.7800    5.7900    5.8000    5.8100    5.8200    5.8300
5.8400    5.8500    5.8600    5.8700    5.8800    5.8900    5.9000    5.9100
5.9200    5.9300    5.9400    5.9500    5.9600    5.9700    5.9800    5.9900
6.0000    6.0100    6.0200    6.0300    6.0400    6.0500    6.0600    6.0700
6.0800    6.0900    6.1000    6.1100    6.1200    6.1300    6.1400    6.1500
6.1600    6.1700    6.1800    6.1900    6.2000    6.2100    6.2200    6.2300
6.2400    6.2500    6.2600    6.2700    6.2800    6.2900    6.3000    6.3100
6.3200    6.3300    6.3400    6.3500    6.3600    6.3700    6.3800    6.3900
6.4000    6.4100    6.4200    6.4300    6.4400    6.4500    6.4600    6.4700
6.4800    6.4900    6.5000    6.5100    6.5200    6.5300    6.5400    6.5500
6.5600    6.5700    6.5800    6.5900    6.6000    6.6100    6.6200    6.6300
6.6400    6.6500    6.6600    6.6700    6.6800    6.6900    6.7000    6.7100
6.7200    6.7300    6.7400    6.7500    6.7600    6.7700    6.7800    6.7900
6.8000    6.8100    6.8200    6.8300    6.8400    6.8500    6.8600    6.8700
6.8800    6.8900    6.9000    6.9100    6.9200    6.9300    6.9400    6.9500
6.9600    6.9700    6.9800    6.9900    7.0000    7.0100    7.0200    7.0300
7.0400    7.0500    7.0600    7.0700    7.0800    7.0900    7.1000    7.1100
7.1200    7.1300    7.1400    7.1500    7.1600    7.1700    7.1800    7.1900
7.2000    7.2100    7.2200    7.2300    7.2400    7.2500    7.2600    7.2700
7.2800    7.2900    7.3000    7.3100    7.3200    7.3300    7.3400    7.3500
7.3600    7.3700    7.3800    7.3900    7.4000    7.4100    7.4200    7.4300
7.4400    7.4500    7.4600    7.4700    7.4800    7.4900    7.5000    7.5100
7.5200    7.5300    7.5400    7.5500    7.5600    7.5700    7.5800    7.5900
7.6000    7.6100    7.6200    7.6300    7.6400    7.6500    7.6600    7.6700
7.6800    7.6900    7.7000    7.7100    7.7200    7.7300    7.7400    7.7500
7.7600    7.7700    7.7800    7.7900    7.8000    7.8100    7.8200    7.8300
7.8400    7.8500    7.8600    7.8700    7.8800    7.8900    7.9000    7.9100
7.9200    7.9300    7.9400    7.9500    7.9600    7.9700    7.9800    7.9900
8.0000    8.0100    8.0200    8.0300    8.0400    8.0500    8.0600    8.0700
8.0800    8.0900    8.1000    8.1100    8.1200    8.1300    8.1400    8.1500
8.1600    8.1700    8.1800    8.1900    8.2000    8.2100    8.2200    8.2300
8.2400    8.2500    8.2600    8.2700    8.2800    8.2900    8.3000    8.3100
</PP_R>
<PP_RAB type="real"  size=" 832" columns="8">
0.0100    0.0100    0.0100    0.0100    0.0100    0.0100    0.0100    0.0100
0.0100    0.0100    0.0100    0.0100    0.0100    0.0100    0.0100    0.0100
0.0100    0.0100    0.0100    0.0100    0.0100    0.0100    0.0100    0.0100
0.0100    0.0100    0.0100    0.0100    0.0100    0.0100    0.0100    0.0100
0.0100    0.0100    0.0100    0.0100    0.0100    0.0100    0.0100    0.0100
0.0100    0.0100    0.0100    0.0100    0.0100    0.0100    0.0100    0.0100
0.0100    0.0100    0.0100    0.0100    0.0100    0.0100    0.0100    0.0100
0.0100    0.0100    0.0100    0.0100    0.0100    0.0100    0.0100    0.0100
0.0100    0.0100    0.0100    0.0100    0.0100    0.0100    0.0100    0.0100
0.0100    0.0100    0.0100    0.0100    0.0100    0.0100    0.0100    0.0100
0.0100    0.0100    0.0100    0.0100    0.0100    0.0100    0.0100    0.0100
0.0100    0.0100    0.0100    0.0100    0.0100    0.0100    0.0100    0.0100
0.0100    0.0100    0.0100    0.0100    0.0100    0.0100    0.0100    0.0100
0.0100    0.0100    0.0100    0.0100    0.0100    0.0100    0.0100    0.0100
0.0100    0.0100    0.0100    0.0100    0.0100    0.0100    0.0100    0.0100
0.0100    0.0100    0.0100    0.0100    0.0100    0.0100    0.0100    0.0100
0.0100    0.0100    0.0100    0.0100    0.0100    0.0100    0.0100    0.0100
0.0100    0.0100    0.0100    0.0100    0.0100    0.0100    0.0100    0.0100
0.0100    0.0100    0.0100    0.0100    0.0100    0.0100    0.0100    0.0100
0.0100    0.0100    0.0100    0.0100    0.0100    0.0100    0.0100    0.0100
0.0100    0.0100    0.0100    0.0100    0.0100    0.0100    0.0100    0.0100
0.0100    0.0100    0.0100    0.0100    0.0100    0.0100    0.0100    0.0100
0.0100    0.0100    0.0100    0.0100    0.0100    0.0100    0.0100    0.0100
0.0100    0.0100    0.0100    0.0100    0.0100    0.0100    0.0100    0.0100
0.0100    0.0100    0.0100    0.0100    0.0100    0.0100    0.0100    0.0100
0.0100    0.0100    0.0100    0.0100    0.0100    0.0100    0.0100    0.0100
0.0100    0.0100    0.0100    0.0100    0.0100    0.0100    0.0100    0.0100
0.0100    0.0100    0.0100    0.0100    0.0100    0.0100    0.0100    0.0100
0.0100    0.0100    0.0100    0.0100    0.0100    0.0100    0.0100    0.0100
0.0100    0.0100    0.0100    0.0100    0.0100    0.0100    0.0100    0.0100
0.0100    0.0100    0.0100    0.0100    0.0100    0.0100    0.0100    0.0100
0.0100    0.0100    0.0100    0.0100    0.0100    0.0100    0.0100    0.0100
0.0100    0.0100    0.0100    0.0100    0.0100    0.0100    0.0100    0.0100
0.0100    0.0100    0.0100    0.0100    0.0100    0.0100    0.0100    0.0100
0.0100    0.0100    0.0100    0.0100    0.0100    0.0100    0.0100    0.0100
0.0100    0.0100    0.0100    0.0100    0.0100    0.0100    0.0100    0.0100
0.0100    0.0100    0.0100    0.0100    0.0100    0.0100    0.0100    0.0100
0.0100    0.0100    0.0100    0.0100    0.0100    0.0100    0.0100    0.0100
0.0100    0.0100    0.0100    0.0100    0.0100    0.0100    0.0100    0.0100
0.0100    0.0100    0.0100    0.0100    0.0100    0.0100    0.0100    0.0100
0.0100    0.0100    0.0100    0.0100    0.0100    0.0100    0.0100    0.0100
0.0100    0.0100    0.0100    0.0100    0.0100    0.0100    0.0100    0.0100
0.0100    0.0100    0.0100    0.0100    0.0100    0.0100    0.0100    0.0100
0.0100    0.0100    0.0100    0.0100    0.0100    0.0100    0.0100    0.0100
0.0100    0.0100    0.0100    0.0100    0.0100    0.0100    0.0100    0.0100
0.0100    0.0100    0.0100    0.0100    0.0100    0.0100    0.0100    0.0100
0.0100    0.0100    0.0100    0.0100    0.0100    0.0100    0.0100    0.0100
0.0100    0.0100    0.0100    0.0100    0.0100    0.0100    0.0100    0.0100
0.0100    0.0100    0.0100    0.0100    0.0100    0.0100    0.0100    0.0100
0.0100    0.0100    0.0100    0.0100    0.0100    0.0100    0.0100    0.0100
0.0100    0.0100    0.0100    0.0100    0.0100    0.0100    0.0100    0.0100
0.0100    0.0100    0.0100    0.0100    0.0100    0.0100    0.0100    0.0100
0.0100    0.0100    0.0100    0.0100    0.0100    0.0100    0.0100    0.0100
0.0100    0.0100    0.0100    0.0100    0.0100    0.0100    0.0100    0.0100
0.0100    0.0100    0.0100    0.0100    0.0100    0.0100    0.0100    0.0100
0.0100    0.0100    0.0100    0.0100    0.0100    0.0100    0.0100    0.0100
0.0100    0.0100    0.0100    0.0100    0.0100    0.0100    0.0100    0.0100
0.0100    0.0100    0.0100    0.0100    0.0100    0.0100    0.0100    0.0100
0.0100    0.0100    0.0100    0.0100    0.0100    0.0100    0.0100    0.0100
0.0100    0.0100    0.0100    0.0100    0.0100    0.0100    0.0100    0.0100
0.0100    0.0100    0.0100    0.0100    0.0100    0.0100    0.0100    0.0100
0.0100    0.0100    0.0100    0.0100    0.0100    0.0100    0.0100    0.0100
0.0100    0.0100    0.0100    0.0100    0.0100    0.0100    0.0100    0.0100
0.0100    0.0100    0.0100    0.0100    0.0100    0.0100    0.0100    0.0100
0.0100    0.0100    0.0100    0.0100    0.0100    0.0100    0.0100    0.0100
0.0100    0.0100    0.0100    0.0100    0.0100    0.0100    0.0100    0.0100
0.0100    0.0100    0.0100    0.0100    0.0100    0.0100    0.0100    0.0100
0.0100    0.0100    0.0100    0.0100    0.0100    0.0100    0.0100    0.0100
0.0100    0.0100    0.0100    0.0100    0.0100    0.0100    0.0100    0.0100
0.0100    0.0100    0.0100    0.0100    0.0100    0.0100    0.0100    0.0100
0.0100    0.0100    0.0100    0.0100    0.0100    0.0100    0.0100    0.0100
0.0100    0.0100    0.0100    0.0100    0.0100    0.0100    0.0100    0.0100
0.0100    0.0100    0.0100    0.0100    0.0100    0.0100    0.0100    0.0100
0.0100    0.0100    0.0100    0.0100    0.0100    0.0100    0.0100    0.0100
0.0100    0.0100    0.0100    0.0100    0.0100    0.0100    0.0100    0.0100
0.0100    0.0100    0.0100    0.0100    0.0100    0.0100    0.0100    0.0100
0.0100    0.0100    0.0100    0.0100    0.0100    0.0100    0.0100    0.0100
0.0100    0.0100    0.0100    0.0100    0.0100    0.0100    0.0100    0.0100
0.0100    0.0100    0.0100    0.0100    0.0100    0.0100    0.0100    0.0100
0.0100    0.0100    0.0100    0.0100    0.0100    0.0100    0.0100    0.0100
0.0100    0.0100    0.0100    0.0100    0.0100    0.0100    0.0100    0.0100
0.0100    0.0100    0.0100    0.0100    0.0100    0.0100    0.0100    0.0100
0.0100    0.0100    0.0100    0.0100    0.0100    0.0100    0.0100    0.0100
0.0100    0.0100    0.0100    0.0100    0.0100    0.0100    0.0100    0.0100
0.0100    0.0100    0.0100    0.0100    0.0100    0.0100    0.0100    0.0100
0.0100    0.0100    0.0100    0.0100    0.0100    0.0100    0.0100    0.0100
0.0100    0.0100    0.0100    0.0100    0.0100    0.0100    0.0100    0.0100
0.0100    0.0100    0.0100    0.0100    0.0100    0.0100    0.0100    0.0100
0.0100    0.0100    0.0100    0.0100    0.0100    0.0100    0.0100    0.0100
0.0100    0.0100    0.0100    0.0100    0.0100    0.0100    0.0100    0.0100
0.0100    0.0100    0.0100    0.0100    0.0100    0.0100    0.0100    0.0100
0.0100    0.0100    0.0100    0.0100    0.0100    0.0100    0.0100    0.0100
0.0100    0.0100    0.0100    0.0100    0.0100    0.0100    0.0100    0.0100
0.0100    0.0100    0.0100    0.0100    0.0100    0.0100    0.0100    0.0100
0.0100    0.0100    0.0100    0.0100    0.0100    0.0100    0.0100    0.0100
0.0100    0.0100    0.0100    0.0100    0.0100    0.0100    0.0100    0.0100
0.0100    0.0100    0.0100    0.0100    0.0100    0.0100    0.0100    0.0100
0.0100    0.0100    0.0100    0.0100    0.0100    0.0100    0.0100    0.0100
0.0100    0.0100    0.0100    0.0100    0.0100    0.0100    0.0100    0.0100
0.0100    0.0100    0.0100    0.0100    0.0100    0.0100    0.0100    0.0100
0.0100    0.0100    0.0100    0.0100    0.0100    0.0100    0.0100    0.0100
0.0100    0.0100    0.0100    0.0100    0.0100    0.0100    0.0100    0.0100
0.0100    0.0100    0.0100    0.0100    0.0100    0.0100    0.0100    0.0100
0.0100    0.0100    0.0100    0.0100    0.0100    0.0100    0.0100    0.0100
</PP_RAB>
</PP_MESH>
<PP_LOCAL type="real"  size=" 832" columns="4">
-3.0440828314E+01   -3.0438107417E+01   -3.0429946421E+01   -3.0416350490E+01
-3.0397328094E+01   -3.0372890834E+01   -3.0343053205E+01   -3.0307832306E+01
-3.0267247521E+01   -3.0221320184E+01   -3.0170073229E+01   -3.0113530871E+01
-3.0051718296E+01   -2.9984661403E+01   -2.9912386588E+01   -2.9834920587E+01
-2.9752290387E+01   -2.9664523192E+01   -2.9571646469E+01   -2.9473688046E+01
-2.9370676280E+01   -2.9262640280E+01   -2.9149610180E+01   -2.9031617464E+01
-2.8908695315E+01   -2.8780879012E+01   -2.8648206342E+01   -2.8510718027E+01
-2.8368458167E+01   -2.8221474686E+01   -2.8069819766E+01   -2.7913550283E+01
-2.7752728223E+01   -2.7587421070E+01   -2.7417702180E+01   -2.7243651111E+01
-2.7065353922E+01   -2.6882903424E+01   -2.6696399392E+01   -2.6505948720E+01
-2.6311665520E+01   -2.6113671174E+01   -2.5912094319E+01   -2.5707070774E+01
-2.5498743418E+01   -2.5287261996E+01   -2.5072782890E+01   -2.4855468820E+01
-2.4635488518E+01   -2.4413016353E+01   -2.4188231919E+01   -2.3961319606E+01
-2.3732468141E+01   -2.3501870112E+01   -2.3269721492E+01   -2.3036221142E+01
-2.2801570324E+01   -2.2565972200E+01   -2.2329631348E+01   -2.2092753264E+01
-2.1855543874E+01   -2.1618209039E+01   -2.1380954068E+01   -2.1143983216E+01
-2.0907499185E+01   -2.0671702615E+01   -2.0436791567E+01   -2.0202961001E+01
-1.9970402245E+01   -1.9739302454E+01   -1.9509844069E+01   -1.9282204271E+01
-1.9056554437E+01   -1.8833059599E+01   -1.8611877911E+01   -1.8393160124E+01
-1.8177049083E+01   -1.7963679238E+01   -1.7753176171E+01   -1.7545656159E+01
-1.7341225746E+01   -1.7139981359E+01   -1.6942008934E+01   -1.6747383580E+01
-1.6556169269E+01   -1.6368418539E+01   -1.6184172238E+01   -1.6003459275E+01
-1.5826296395E+01   -1.5652687976E+01   -1.5482625827E+01   -1.5316089014E+01
-1.5153043679E+01   -1.4993442874E+01   -1.4837226391E+01   -1.4684320655E+01
-1.4534638369E+01   -1.4388079244E+01   -1.4244537621E+01   -1.4103910239E+01
-1.3966097534E+01   -1.3831003293E+01   -1.3698534721E+01   -1.3568602412E+01
-1.3441120327E+01   -1.3316005761E+01   -1.3193179314E+01   -1.3072564853E+01
-1.2954089469E+01   -1.2837683437E+01   -1.2723280158E+01   -1.2610816107E+01
-1.2500230772E+01   -1.2391466589E+01   -1.2284468877E+01   -1.2179185763E+01
-1.2075568111E+01   -1.1973569448E+01   -1.1873145879E+01   -1.1774256015E+01
-1.1676860887E+01   -1.1580923864E+01   -1.1486410571E+01   -1.1393288800E+01
-1.1301528420E+01   -1.1211101312E+01   -1.1121981257E+01   -1.1034143833E+01
-1.0947565998E+01   -1.0862226386E+01   -1.0778105901E+01   -1.0695191265E+01
-1.0613474429E+01   -1.0532949928E+01   -1.0453609322E+01   -1.0375439736E+01
-1.0298427345E+01   -1.0222558680E+01   -1.0147821739E+01   -1.0074204262E+01
-1.0001693713E+01   -9.9302772408E+00   -9.8599426540E+00   -9.7906775481E+00
-9.7224682624E+00   -9.6552939932E+00   -9.5891160195E+00   -9.5238858770E+00
-9.4595521149E+00   -9.3960770882E+00   -9.3334411367E+00   -9.2716301611E+00
-9.2106321124E+00   -9.1504311001E+00   -9.0910100720E+00   -9.0323544496E+00
-8.9744499369E+00   -8.9172823237E+00   -8.8608378311E+00   -8.8051030570E+00
-8.7500649241E+00   -8.6957106662E+00   -8.6420278127E+00   -8.5890041735E+00
-8.5366278249E+00   -8.4848870990E+00   -8.4337705733E+00   -8.3832670635E+00
-8.3333656174E+00   -8.2840555103E+00   -8.2353262415E+00   -8.1871675321E+00
-8.1395693238E+00   -8.0925217772E+00   -8.0460152718E+00   -8.0000404043E+00
-7.9545879893E+00   -7.9096490619E+00   -7.8652148524E+00   -7.8212767841E+00
-7.7778265716E+00   -7.7348562114E+00   -7.6923577352E+00   -7.6503230969E+00
-7.6087444642E+00   -7.5676143143E+00   -7.5269254608E+00   -7.4866715261E+00
-7.4468463678E+00   -7.4074434830E+00   -7.3684561484E+00   -7.3298775870E+00
-7.2917010518E+00   -7.2539199903E+00   -7.2165283164E+00   -7.1795201480E+00
-7.1428896175E+00   -7.1066309778E+00   -7.0707385966E+00   -7.0352069506E+00
-7.0000306220E+00   -6.9652043093E+00   -6.9307228155E+00   -6.8965810445E+00
-6.8627740000E+00   -6.8292967834E+00   -6.7961445914E+00   -6.7633127132E+00
-6.7307965288E+00   -6.6985915067E+00   -6.6666932015E+00   -6.6350972522E+00
-6.6037993802E+00   -6.5727953870E+00   -6.5420811528E+00   -6.5116526343E+00
-6.4815058631E+00   -6.4516369441E+00   -6.4220420536E+00   -6.3927174376E+00
-6.3636594106E+00   -6.3348643536E+00   -6.3063287128E+00   -6.2780489985E+00
-6.2500217829E+00   -6.2222436993E+00   -6.1947114406E+00   -6.1674217580E+00
-6.1403714598E+00   -6.1135574097E+00   -6.0869765263E+00   -6.0606257815E+00
-6.0345021993E+00   -6.0086028548E+00   -5.9829248731E+00   -5.9574654285E+00
-5.9322217427E+00   -5.9071910848E+00   -5.8823707694E+00   -5.8577581564E+00
-5.8333506494E+00   -5.8091456952E+00   -5.7851407829E+00   -5.7613334428E+00
-5.7377212458E+00   -5.7143018023E+00   -5.6910727618E+00   -5.6680318117E+00
-5.6451766766E+00   -5.6225051179E+00   -5.6000149327E+00   -5.5777039532E+00
-5.5555700460E+00   -5.5336111115E+00   -5.5118250830E+00   -5.4902099265E+00
-5.4687636395E+00   -5.4474842508E+00   -5.4263698198E+00   -5.4054184358E+00
-5.3846282174E+00   -5.3639973123E+00   -5.3435238963E+00   -5.3232061730E+00
-5.3030423731E+00   -5.2830307541E+00   -5.2631695997E+00   -5.2434572194E+00
-5.2238919478E+00   -5.2044721443E+00   -5.1851961926E+00   -5.1660625003E+00
-5.1470694983E+00   -5.1282156407E+00   -5.1094994039E+00   -5.0909192868E+00
-5.0724738096E+00   -5.0541615144E+00   -5.0359809638E+00   -5.0179307413E+00
-5.0000094505E+00   -4.9822157150E+00   -4.9645481778E+00   -4.9470055010E+00
-4.9295863659E+00   -4.9122894719E+00   -4.8951135368E+00   -4.8780572963E+00
-4.8611195035E+00   -4.8442989289E+00   -4.8275943599E+00   -4.8110046006E+00
-4.7945284713E+00   -4.7781648088E+00   -4.7619124653E+00   -4.7457703089E+00
-4.7297372226E+00   -4.7138121050E+00   -4.6979938689E+00   -4.6822814420E+00
-4.6666737662E+00   -4.6511697976E+00   -4.6357685058E+00   -4.6204688742E+00
-4.6052698998E+00   -4.5901705922E+00   -4.5751699745E+00   -4.5602670823E+00
-4.5454609636E+00   -4.5307506789E+00   -4.5161353007E+00   -4.5016139136E+00
-4.4871856138E+00   -4.4728495091E+00   -4.4586047185E+00   -4.4444503725E+00
-4.4303856123E+00   -4.4164095902E+00   -4.4025214690E+00   -4.3887204219E+00
-4.3750056328E+00   -4.3613762953E+00   -4.3478316134E+00   -4.3343708008E+00
-4.3209930808E+00   -4.3076976865E+00   -4.2944838603E+00   -4.2813508537E+00
-4.2682979276E+00   -4.2553243518E+00   -4.2424294047E+00   -4.2296123739E+00
-4.2168725552E+00   -4.2042092529E+00   -4.1916217799E+00   -4.1791094569E+00
-4.1666716130E+00   -4.1543075852E+00   -4.1420167183E+00   -4.1297983647E+00
-4.1176518847E+00   -4.1055766460E+00   -4.0935720235E+00   -4.0816373996E+00
-4.0697721639E+00   -4.0579757130E+00   -4.0462474503E+00   -4.0345867865E+00
-4.0229931387E+00   -4.0114659308E+00   -4.0000045934E+00   -3.9886085634E+00
-3.9772772841E+00   -3.9660102054E+00   -3.9548067831E+00   -3.9436664792E+00
-3.9325887618E+00   -3.9215731050E+00   -3.9106189886E+00   -3.8997258985E+00
-3.8888933260E+00   -3.8781207683E+00   -3.8674077278E+00   -3.8567537128E+00
-3.8461582367E+00   -3.8356208183E+00   -3.8251409819E+00   -3.8147182566E+00
-3.8043521769E+00   -3.7940422822E+00   -3.7837881170E+00   -3.7735892306E+00
-3.7634451771E+00   -3.7533555156E+00   -3.7433198097E+00   -3.7333376278E+00
-3.7234085429E+00   -3.7135321323E+00   -3.7037079780E+00   -3.6939356664E+00
-3.6842147881E+00   -3.6745449382E+00   -3.6649257159E+00   -3.6553567247E+00
-3.6458375720E+00   -3.6363678696E+00   -3.6269472330E+00   -3.6175752820E+00
-3.6082516401E+00   -3.5989759347E+00   -3.5897477970E+00   -3.5805668621E+00
-3.5714327687E+00   -3.5623451593E+00   -3.5533036798E+00   -3.5443079800E+00
-3.5353577130E+00   -3.5264525355E+00   -3.5175921075E+00   -3.5087760928E+00
-3.5000041580E+00   -3.4912759735E+00   -3.4825912127E+00   -3.4739495524E+00
-3.4653506725E+00   -3.4567942562E+00   -3.4482799896E+00   -3.4398075620E+00
-3.4313766659E+00   -3.4229869966E+00   -3.4146382523E+00   -3.4063301345E+00
-3.3980623472E+00   -3.3898345975E+00   -3.3816465952E+00   -3.3734980531E+00
-3.3653886866E+00   -3.3573182137E+00   -3.3492863555E+00   -3.3412928353E+00
-3.3333373794E+00   -3.3254197164E+00   -3.3175395778E+00   -3.3096966974E+00
-3.3018908116E+00   -3.2941216592E+00   -3.2863889815E+00   -3.2786925224E+00
-3.2710320278E+00   -3.2634072464E+00   -3.2558179289E+00   -3.2482638284E+00
-3.2407447006E+00   -3.2332603029E+00   -3.2258103954E+00   -3.2183947402E+00
-3.2110131016E+00   -3.2036652461E+00   -3.1963509423E+00   -3.1890699609E+00
-3.1818220747E+00   -3.1746070586E+00   -3.1674246895E+00   -3.1602747462E+00
-3.1531570098E+00   -3.1460712630E+00   -3.1390172907E+00   -3.1319948797E+00
-3.1250038185E+00   -3.1180438978E+00   -3.1111149100E+00   -3.1042166491E+00
-3.0973489115E+00   -3.0905114948E+00   -3.0837041987E+00   -3.0769268247E+00
-3.0701791758E+00   -3.0634610570E+00   -3.0567722749E+00   -3.0501126376E+00
-3.0434819551E+00   -3.0368800389E+00   -3.0303067024E+00   -3.0237617603E+00
-3.0172450290E+00   -3.0107563265E+00   -3.0042954724E+00   -2.9978622878E+00
-2.9914565953E+00   -2.9850782191E+00   -2.9787269847E+00   -2.9724027194E+00
-2.9661052517E+00   -2.9598344116E+00   -2.9535900307E+00   -2.9473719418E+00
-2.9411799792E+00   -2.9350139786E+00   -2.9288737770E+00   -2.9227592129E+00
-2.9166701261E+00   -2.9106063576E+00   -2.9045677498E+00   -2.8985541465E+00
-2.8925653928E+00   -2.8866013348E+00   -2.8806618202E+00   -2.8747466977E+00
-2.8688558175E+00   -2.8629890307E+00   -2.8571461899E+00   -2.8513271488E+00
-2.8455317623E+00   -2.8397598863E+00   -2.8340113782E+00   -2.8282860963E+00
-2.8225839001E+00   -2.8169046503E+00   -2.8112482086E+00   -2.8056144380E+00
-2.8000032024E+00   -2.7944143669E+00   -2.7888477976E+00   -2.7833033616E+00
-2.7777809274E+00   -2.7722803641E+00   -2.7668015421E+00   -2.7613443327E+00
-2.7559086083E+00   -2.7504942424E+00   -2.7451011091E+00   -2.7397290840E+00
-2.7343780433E+00   -2.7290478643E+00   -2.7237384252E+00   -2.7184496052E+00
-2.7131812845E+00   -2.7079333441E+00   -2.7027056660E+00   -2.6974981330E+00
-2.6923106290E+00   -2.6871430385E+00   -2.6819952472E+00   -2.6768671415E+00
-2.6717586086E+00   -2.6666695368E+00   -2.6615998151E+00   -2.6565493332E+00
-2.6515179819E+00   -2.6465056527E+00   -2.6415122379E+00   -2.6365376307E+00
-2.6315817249E+00   -2.6266444154E+00   -2.6217255977E+00   -2.6168251680E+00
-2.6119430235E+00   -2.6070790620E+00   -2.6022331821E+00   -2.5974052832E+00
-2.5925952654E+00   -2.5878030295E+00   -2.5830284771E+00   -2.5782715105E+00
-2.5735320327E+00   -2.5688099475E+00   -2.5641051593E+00   -2.5594175732E+00
-2.5547470951E+00   -2.5500936315E+00   -2.5454570895E+00   -2.5408373770E+00
-2.5362344027E+00   -2.5316480756E+00   -2.5270783056E+00   -2.5225250033E+00
-2.5179880797E+00   -2.5134674467E+00   -2.5089630167E+00   -2.5044747027E+00
-2.5000024184E+00   -2.4955460780E+00   -2.4911055965E+00   -2.4866808894E+00
-2.4822718727E+00   -2.4778784631E+00   -2.4735005779E+00   -2.4691381350E+00
-2.4647910529E+00   -2.4604592504E+00   -2.4561426472E+00   -2.4518411635E+00
-2.4475547200E+00   -2.4432832378E+00   -2.4390266389E+00   -2.4347848455E+00
-2.4305577806E+00   -2.4263453676E+00   -2.4221475303E+00   -2.4179641934E+00
-2.4137952818E+00   -2.4096407210E+00   -2.4055004371E+00   -2.4013743565E+00
-2.3972624063E+00   -2.3931645141E+00   -2.3890806079E+00   -2.3850106162E+00
-2.3809544680E+00   -2.3769120928E+00   -2.3728834206E+00   -2.3688683818E+00
-2.3648669073E+00   -2.3608789286E+00   -2.3569043773E+00   -2.3529431860E+00
-2.3489952872E+00   -2.3450606142E+00   -2.3411391007E+00   -2.3372306807E+00
-2.3333352888E+00   -2.3294528599E+00   -2.3255833295E+00   -2.3217266334E+00