<UPF version="2.0.1">
<PP_INFO>

This pseudopotential file has been produced using the code
ONCVPSP  (Optimized Norm-Conservinng Vanderbilt PSeudopotential)
scalar-relativistic version 3.2.3 08/16/2016 by D. R. Hamann
The code is available through a link at URL www.mat-simresearch.com.
Documentation with the package provides a full discription of the
input data below.


While it is not required under the terms of the GNU GPL, it is
suggested that you cite D. R. Hamann, Phys. Rev. B 88, 085117 (2013)
in any publication using these pseudopotentials.

<PP_INPUTFILE>
# ATOM AND REFERENCE CONFIGURATION
# atsym  z   nc   nv     iexc    psfile
Ne 10.00    1    2 -116133      upf
#
#   n    l    f        energy (Ha)
1    0    2.00
2    0    2.00
2    1    6.00
#
# PSEUDOPOTENTIAL AND OPTIMIZATION
# lmax
1
#
#   l,   rc,      ep,       ncon, nbas, qcut
0   1.30000  -1.33034    4    7   8.00000
1   1.70000  -0.48769    4    7   8.00000
#
# LOCAL POTENTIAL
# lloc, lpopt,  rc(5),   dvloc0
4    5   1.30000      0.00000
#
# VANDERBILT-KLEINMAN-BYLANDER PROJECTORs
# l, nproj, debl
0    2   1.50000
1    2   1.50000
#
# MODEL CORE CHARGE
# icmod, fcfact, rcfact
0   0.00000   0.00000
#
# LOG DERIVATIVE ANALYSIS
# epsh1, epsh2, depsh
-12.00   12.00    0.02
#
# OUTPUT GRID
# rlmax, drl
4.00    0.01
#
# TEST CONFIGURATIONS
# ncnf
0
# nvcnf
#   n    l    f
</PP_INPUTFILE>
</PP_INFO>
<!--                               -->
<!-- END OF HUMAN READABLE SECTION -->
<!--                               -->
<PP_HEADER
generated="Generated using ONCVPSP code by D. R. Hamann"
author="anonymous"
date="170120"
comment=""
element="Ne"
pseudo_type="NC"
relativistic="scalar"
is_ultrasoft="F"
is_paw="F"
is_coulomb="F"
has_so="F"
has_wfc="F"
has_gipaw="F"
core_correction="F"
functional="PBESOL"
z_valence="    8.00"
total_psenergy="  -6.65838413522E+01"
rho_cutoff="   7.57000000000E+00"
l_max="1"
l_local="-1"
mesh_size="   758"
number_of_wfc="2"
number_of_proj="4"/>
<PP_MESH>
<PP_R type="real"  size=" 758" columns="8">
0.0000    0.0100    0.0200    0.0300    0.0400    0.0500    0.0600    0.0700
0.0800    0.0900    0.1000    0.1100    0.1200    0.1300    0.1400    0.1500
0.1600    0.1700    0.1800    0.1900    0.2000    0.2100    0.2200    0.2300
0.2400    0.2500    0.2600    0.2700    0.2800    0.2900    0.3000    0.3100
0.3200    0.3300    0.3400    0.3500    0.3600    0.3700    0.3800    0.3900
0.4000    0.4100    0.4200    0.4300    0.4400    0.4500    0.4600    0.4700
0.4800    0.4900    0.5000    0.5100    0.5200    0.5300    0.5400    0.5500
0.5600    0.5700    0.5800    0.5900    0.6000    0.6100    0.6200    0.6300
0.6400    0.6500    0.6600    0.6700    0.6800    0.6900    0.7000    0.7100
0.7200    0.7300    0.7400    0.7500    0.7600    0.7700    0.7800    0.7900
0.8000    0.8100    0.8200    0.8300    0.8400    0.8500    0.8600    0.8700
0.8800    0.8900    0.9000    0.9100    0.9200    0.9300    0.9400    0.9500
0.9600    0.9700    0.9800    0.9900    1.0000    1.0100    1.0200    1.0300
1.0400    1.0500    1.0600    1.0700    1.0800    1.0900    1.1000    1.1100
1.1200    1.1300    1.1400    1.1500    1.1600    1.1700    1.1800    1.1900
1.2000    1.2100    1.2200    1.2300    1.2400    1.2500    1.2600    1.2700
1.2800    1.2900    1.3000    1.3100    1.3200    1.3300    1.3400    1.3500
1.3600    1.3700    1.3800    1.3900    1.4000    1.4100    1.4200    1.4300
1.4400    1.4500    1.4600    1.4700    1.4800    1.4900    1.5000    1.5100
1.5200    1.5300    1.5400    1.5500    1.5600    1.5700    1.5800    1.5900
1.6000    1.6100    1.6200    1.6300    1.6400    1.6500    1.6600    1.6700
1.6800    1.6900    1.7000    1.7100    1.7200    1.7300    1.7400    1.7500
1.7600    1.7700    1.7800    1.7900    1.8000    1.8100    1.8200    1.8300
1.8400    1.8500    1.8600    1.8700    1.8800    1.8900    1.9000    1.9100
1.9200    1.9300    1.9400    1.9500    1.9600    1.9700    1.9800    1.9900
2.0000    2.0100    2.0200    2.0300    2.0400    2.0500    2.0600    2.0700
2.0800    2.0900    2.1000    2.1100    2.1200    2.1300    2.1400    2.1500
2.1600    2.1700    2.1800    2.1900    2.2000    2.2100    2.2200    2.2300
2.2400    2.2500    2.2600    2.2700    2.2800    2.2900    2.3000    2.3100
2.3200    2.3300    2.3400    2.3500    2.3600    2.3700    2.3800    2.3900
2.4000    2.4100    2.4200    2.4300    2.4400    2.4500    2.4600    2.4700
2.4800    2.4900    2.5000    2.5100    2.5200    2.5300    2.5400    2.5500
2.5600    2.5700    2.5800    2.5900    2.6000    2.6100    2.6200    2.6300
2.6400    2.6500    2.6600    2.6700    2.6800    2.6900    2.7000    2.7100
2.7200    2.7300    2.7400    2.7500    2.7600    2.7700    2.7800    2.7900
2.8000    2.8100    2.8200    2.8300    2.8400    2.8500    2.8600    2.8700
2.8800    2.8900    2.9000    2.9100    2.9200    2.9300    2.9400    2.9500
2.9600    2.9700    2.9800    2.9900    3.0000    3.0100    3.0200    3.0300
3.0400    3.0500    3.0600    3.0700    3.0800    3.0900    3.1000    3.1100
3.1200    3.1300    3.1400    3.1500    3.1600    3.1700    3.1800    3.1900
3.2000    3.2100    3.2200    3.2300    3.2400    3.2500    3.2600    3.2700
3.2800    3.2900    3.3000    3.3100    3.3200    3.3300    3.3400    3.3500
3.3600    3.3700    3.3800    3.3900    3.4000    3.4100    3.4200    3.4300
3.4400    3.4500    3.4600    3.4700    3.4800    3.4900    3.5000    3.5100
3.5200    3.5300    3.5400    3.5500    3.5600    3.5700    3.5800    3.5900
3.6000    3.6100    3.6200    3.6300    3.6400    3.6500    3.6600    3.6700
3.6800    3.6900    3.7000    3.7100    3.7200    3.7300    3.7400    3.7500
3.7600    3.7700    3.7800    3.7900    3.8000    3.8100    3.8200    3.8300
3.8400    3.8500    3.8600    3.8700    3.8800    3.8900    3.9000    3.9100
3.9200    3.9300    3.9400    3.9500    3.9600    3.9700    3.9800    3.9900
4.0000    4.0100    4.0200    4.0300    4.0400    4.0500    4.0600    4.0700
4.0800    4.0900    4.1000    4.1100    4.1200    4.1300    4.1400    4.1500
4.1600    4.1700    4.1800    4.1900    4.2000    4.2100    4.2200    4.2300
4.2400    4.2500    4.2600    4.2700    4.2800    4.2900    4.3000    4.3100
4.3200    4.3300    4.3400    4.3500    4.3600    4.3700    4.3800    4.3900
4.4000    4.4100    4.4200    4.4300    4.4400    4.4500    4.4600    4.4700
4.4800    4.4900    4.5000    4.5100    4.5200    4.5300    4.5400    4.5500
4.5600    4.5700    4.5800    4.5900    4.6000    4.6100    4.6200    4.6300
4.6400    4.6500    4.6600    4.6700    4.6800    4.6900    4.7000    4.7100
4.7200    4.7300    4.7400    4.7500    4.7600    4.7700    4.7800    4.7900
4.8000    4.8100    4.8200    4.8300    4.8400    4.8500    4.8600    4.8700
4.8800    4.8900    4.9000    4.9100    4.9200    4.9300    4.9400    4.9500
4.9600    4.9700    4.9800    4.9900    5.0000    5.0100    5.0200    5.0300
5.0400    5.0500    5.0600    5.0700    5.0800    5.0900    5.1000    5.1100
5.1200    5.1300    5.1400    5.1500    5.1600    5.1700    5.1800    5.1900
5.2000    5.2100    5.2200    5.2300    5.2400    5.2500    5.2600    5.2700
5.2800    5.2900    5.3000    5.3100    5.3200    5.3300    5.3400    5.3500
5.3600    5.3700    5.3800    5.3900    5.4000    5.4100    5.4200    5.4300
5.4400    5.4500    5.4600    5.4700    5.4800    5.4900    5.5000    5.5100
5.5200    5.5300    5.5400    5.5500    5.5600    5.5700    5.5800    5.5900
5.6000    5.6100    5.6200    5.6300    5.6400    5.6500    5.6600    5.6700
5.6800    5.6900    5.7000    5.7100    5.7200    5.7300    5.7400    5.7500
5.7600    5.7700    5.7800    5.7900    5.8000    5.8100    5.8200    5.8300
5.8400    5.8500    5.8600    5.8700    5.8800    5.8900    5.9000    5.9100
5.9200    5.9300    5.9400    5.9500    5.9600    5.9700    5.9800    5.9900
6.0000    6.0100    6.0200    6.0300    6.0400    6.0500    6.0600    6.0700
6.0800    6.0900    6.1000    6.1100    6.1200    6.1300    6.1400    6.1500
6.1600    6.1700    6.1800    6.1900    6.2000    6.2100    6.2200    6.2300
6.2400    6.2500    6.2600    6.2700    6.2800    6.2900    6.3000    6.3100
6.3200    6.3300    6.3400    6.3500    6.3600    6.3700    6.3800    6.3900
6.4000    6.4100    6.4200    6.4300    6.4400    6.4500    6.4600    6.4700
6.4800    6.4900    6.5000    6.5100    6.5200    6.5300    6.5400    6.5500
6.5600    6.5700    6.5800    6.5900    6.6000    6.6100    6.6200    6.6300
6.6400    6.6500    6.6600    6.6700    6.6800    6.6900    6.7000    6.7100
6.7200    6.7300    6.7400    6.7500    6.7600    6.7700    6.7800    6.7900
6.8000    6.8100    6.8200    6.8300    6.8400    6.8500    6.8600    6.8700
6.8800    6.8900    6.9000    6.9100    6.9200    6.9300    6.9400    6.9500
6.9600    6.9700    6.9800    6.9900    7.0000    7.0100    7.0200    7.0300
7.0400    7.0500    7.0600    7.0700    7.0800    7.0900    7.1000    7.1100
7.1200    7.1300    7.1400    7.1500    7.1600    7.1700    7.1800    7.1900
7.2000    7.2100    7.2200    7.2300    7.2400    7.2500    7.2600    7.2700
7.2800    7.2900    7.3000    7.3100    7.3200    7.3300    7.3400    7.3500
7.3600    7.3700    7.3800    7.3900    7.4000    7.4100    7.4200    7.4300
7.4400    7.4500    7.4600    7.4700    7.4800    7.4900    7.5000    7.5100
7.5200    7.5300    7.5400    7.5500    7.5600    7.5700
</PP_R>
<PP_RAB type="real"  size=" 758" columns="8">
0.0100    0.0100    0.0100    0.0100    0.0100    0.0100    0.0100    0.0100
0.0100    0.0100    0.0100    0.0100    0.0100    0.0100    0.0100    0.0100
0.0100    0.0100    0.0100    0.0100    0.0100    0.0100    0.0100    0.0100
0.0100    0.0100    0.0100    0.0100    0.0100    0.0100    0.0100    0.0100
0.0100    0.0100    0.0100    0.0100    0.0100    0.0100    0.0100    0.0100
0.0100    0.0100    0.0100    0.0100    0.0100    0.0100    0.0100    0.0100
0.0100    0.0100    0.0100    0.0100    0.0100    0.0100    0.0100    0.0100
0.0100    0.0100    0.0100    0.0100    0.0100    0.0100    0.0100    0.0100
0.0100    0.0100    0.0100    0.0100    0.0100    0.0100    0.0100    0.0100
0.0100    0.0100    0.0100    0.0100    0.0100    0.0100    0.0100    0.0100
0.0100    0.0100    0.0100    0.0100    0.0100    0.0100    0.0100    0.0100
0.0100    0.0100    0.0100    0.0100    0.0100    0.0100    0.0100    0.0100
0.0100    0.0100    0.0100    0.0100    0.0100    0.0100    0.0100    0.0100
0.0100    0.0100    0.0100    0.0100    0.0100    0.0100    0.0100    0.0100
0.0100    0.0100    0.0100    0.0100    0.0100    0.0100    0.0100    0.0100
0.0100    0.0100    0.0100    0.0100    0.0100    0.0100    0.0100    0.0100
0.0100    0.0100    0.0100    0.0100    0.0100    0.0100    0.0100    0.0100
0.0100    0.0100    0.0100    0.0100    0.0100    0.0100    0.0100    0.0100
0.0100    0.0100    0.0100    0.0100    0.0100    0.0100    0.0100    0.0100
0.0100    0.0100    0.0100    0.0100    0.0100    0.0100    0.0100    0.0100
0.0100    0.0100    0.0100    0.0100    0.0100    0.0100    0.0100    0.0100
0.0100    0.0100    0.0100    0.0100    0.0100    0.0100    0.0100    0.0100
0.0100    0.0100    0.0100    0.0100    0.0100    0.0100    0.0100    0.0100
0.0100    0.0100    0.0100    0.0100    0.0100    0.0100    0.0100    0.0100
0.0100    0.0100    0.0100    0.0100    0.0100    0.0100    0.0100    0.0100
0.0100    0.0100    0.0100    0.0100    0.0100    0.0100    0.0100    0.0100
0.0100    0.0100    0.0100    0.0100    0.0100    0.0100    0.0100    0.0100
0.0100    0.0100    0.0100    0.0100    0.0100    0.0100    0.0100    0.0100
0.0100    0.0100    0.0100    0.0100    0.0100    0.0100    0.0100    0.0100
0.0100    0.0100    0.0100    0.0100    0.0100    0.0100    0.0100    0.0100
0.0100    0.0100    0.0100    0.0100    0.0100    0.0100    0.0100    0.0100
0.0100    0.0100    0.0100    0.0100    0.0100    0.0100    0.0100    0.0100
0.0100    0.0100    0.0100    0.0100    0.0100    0.0100    0.0100    0.0100
0.0100    0.0100    0.0100    0.0100    0.0100    0.0100    0.0100    0.0100
0.0100    0.0100    0.0100    0.0100    0.0100    0.0100    0.0100    0.0100
0.0100    0.0100    0.0100    0.0100    0.0100    0.0100    0.0100    0.0100
0.0100    0.0100    0.0100    0.0100    0.0100    0.0100    0.0100    0.0100
0.0100    0.0100    0.0100    0.0100    0.0100    0.0100    0.0100    0.0100
0.0100    0.0100    0.0100    0.0100    0.0100    0.0100    0.0100    0.0100
0.0100    0.0100    0.0100    0.0100    0.0100    0.0100    0.0100    0.0100
0.0100    0.0100    0.0100    0.0100    0.0100    0.0100    0.0100    0.0100
0.0100    0.0100    0.0100    0.0100    0.0100    0.0100    0.0100    0.0100
0.0100    0.0100    0.0100    0.0100    0.0100    0.0100    0.0100    0.0100
0.0100    0.0100    0.0100    0.0100    0.0100    0.0100    0.0100    0.0100
0.0100    0.0100    0.0100    0.0100    0.0100    0.0100    0.0100    0.0100
0.0100    0.0100    0.0100    0.0100    0.0100    0.0100    0.0100    0.0100
0.0100    0.0100    0.0100    0.0100    0.0100    0.0100    0.0100    0.0100
0.0100    0.0100    0.0100    0.0100    0.0100    0.0100    0.0100    0.0100
0.0100    0.0100    0.0100    0.0100    0.0100    0.0100    0.0100    0.0100
0.0100    0.0100    0.0100    0.0100    0.0100    0.0100    0.0100    0.0100
0.0100    0.0100    0.0100    0.0100    0.0100    0.0100    0.0100    0.0100
0.0100    0.0100    0.0100    0.0100    0.0100    0.0100    0.0100    0.0100
0.0100    0.0100    0.0100    0.0100    0.0100    0.0100    0.0100    0.0100
0.0100    0.0100    0.0100    0.0100    0.0100    0.0100    0.0100    0.0100
0.0100    0.0100    0.0100    0.0100    0.0100    0.0100    0.0100    0.0100
0.0100    0.0100    0.0100    0.0100    0.0100    0.0100    0.0100    0.0100
0.0100    0.0100    0.0100    0.0100    0.0100    0.0100    0.0100    0.0100
0.0100    0.0100    0.0100    0.0100    0.0100    0.0100    0.0100    0.0100
0.0100    0.0100    0.0100    0.0100    0.0100    0.0100    0.0100    0.0100
0.0100    0.0100    0.0100    0.0100    0.0100    0.0100    0.0100    0.0100
0.0100    0.0100    0.0100    0.0100    0.0100    0.0100    0.0100    0.0100
0.0100    0.0100    0.0100    0.0100    0.0100    0.0100    0.0100    0.0100
0.0100    0.0100    0.0100    0.0100    0.0100    0.0100    0.0100    0.0100
0.0100    0.0100    0.0100    0.0100    0.0100    0.0100    0.0100    0.0100
0.0100    0.0100    0.0100    0.0100    0.0100    0.0100    0.0100    0.0100
0.0100    0.0100    0.0100    0.0100    0.0100    0.0100    0.0100    0.0100
0.0100    0.0100    0.0100    0.0100    0.0100    0.0100    0.0100    0.0100
0.0100    0.0100    0.0100    0.0100    0.0100    0.0100    0.0100    0.0100
0.0100    0.0100    0.0100    0.0100    0.0100    0.0100    0.0100    0.0100
0.0100    0.0100    0.0100    0.0100    0.0100    0.0100    0.0100    0.0100
0.0100    0.0100    0.0100    0.0100    0.0100    0.0100    0.0100    0.0100
0.0100    0.0100    0.0100    0.0100    0.0100    0.0100    0.0100    0.0100
0.0100    0.0100    0.0100    0.0100    0.0100    0.0100    0.0100    0.0100
0.0100    0.0100    0.0100    0.0100    0.0100    0.0100    0.0100    0.0100
0.0100    0.0100    0.0100    0.0100    0.0100    0.0100    0.0100    0.0100
0.0100    0.0100    0.0100    0.0100    0.0100    0.0100    0.0100    0.0100
0.0100    0.0100    0.0100    0.0100    0.0100    0.0100    0.0100    0.0100
0.0100    0.0100    0.0100    0.0100    0.0100    0.0100    0.0100    0.0100
0.0100    0.0100    0.0100    0.0100    0.0100    0.0100    0.0100    0.0100
0.0100    0.0100    0.0100    0.0100    0.0100    0.0100    0.0100    0.0100
0.0100    0.0100    0.0100    0.0100    0.0100    0.0100    0.0100    0.0100
0.0100    0.0100    0.0100    0.0100    0.0100    0.0100    0.0100    0.0100
0.0100    0.0100    0.0100    0.0100    0.0100    0.0100    0.0100    0.0100
0.0100    0.0100    0.0100    0.0100    0.0100    0.0100    0.0100    0.0100
0.0100    0.0100    0.0100    0.0100    0.0100    0.0100    0.0100    0.0100
0.0100    0.0100    0.0100    0.0100    0.0100    0.0100    0.0100    0.0100
0.0100    0.0100    0.0100    0.0100    0.0100    0.0100    0.0100    0.0100
0.0100    0.0100    0.0100    0.0100    0.0100    0.0100    0.0100    0.0100
0.0100    0.0100    0.0100    0.0100    0.0100    0.0100    0.0100    0.0100
0.0100    0.0100    0.0100    0.0100    0.0100    0.0100    0.0100    0.0100
0.0100    0.0100    0.0100    0.0100    0.0100    0.0100    0.0100    0.0100
0.0100    0.0100    0.0100    0.0100    0.0100    0.0100    0.0100    0.0100
0.0100    0.0100    0.0100    0.0100    0.0100    0.0100    0.0100    0.0100
0.0100    0.0100    0.0100    0.0100    0.0100    0.0100    0.0100    0.0100
0.0100    0.0100    0.0100    0.0100    0.0100    0.0100
</PP_RAB>
</PP_MESH>
<PP_LOCAL type="real"  size=" 758" columns="4">
-2.6758079342E+01   -2.6763186773E+01   -2.6776670598E+01   -2.6795599493E+01
-2.6815780910E+01   -2.6833039832E+01   -2.6844006404E+01   -2.6846471308E+01
-2.6839367711E+01   -2.6822538927E+01   -2.6796441791E+01   -2.6761879014E+01
-2.6719798331E+01   -2.6671160964E+01   -2.6616866140E+01   -2.6557714867E+01
-2.6494398381E+01   -2.6427500492E+01   -2.6357506777E+01   -2.6284816295E+01
-2.6209753490E+01   -2.6132579102E+01   -2.6053499648E+01   -2.5972675413E+01
-2.5890227078E+01   -2.5806241185E+01   -2.5720774652E+01   -2.5633858553E+01
-2.5545501345E+01   -2.5455691686E+01   -2.5364401000E+01   -2.5271585880E+01
-2.5177190421E+01   -2.5081148556E+01   -2.4983386430E+01   -2.4883824829E+01
-2.4782381677E+01   -2.4678974567E+01   -2.4573523286E+01   -2.4465952282E+01
-2.4356193003E+01   -2.4244186036E+01   -2.4129882974E+01   -2.4013247954E+01
-2.3894258813E+01   -2.3772907828E+01   -2.3649202034E+01   -2.3523163128E+01
-2.3394826984E+01   -2.3264242839E+01   -2.3131472193E+01   -2.2996587499E+01
-2.2859670717E+01   -2.2720811795E+01   -2.2580107139E+01   -2.2437658135E+01
-2.2293569756E+01   -2.2147949296E+01   -2.2000905250E+01   -2.1852546344E+01
-2.1702980729E+01   -2.1552315325E+01   -2.1400655309E+01   -2.1248103731E+01
-2.1094761243E+01   -2.0940725919E+01   -2.0786093160E+01   -2.0630955650E+01
-2.0475403369E+01   -2.0319523636E+01   -2.0163401169E+01   -2.0007118168E+01
-1.9850754397E+01   -1.9694387271E+01   -1.9538091934E+01   -1.9381941339E+01
-1.9226006306E+01   -1.9070355583E+01   -1.8915055892E+01   -1.8760171959E+01
-1.8605766546E+01   -1.8451900464E+01   -1.8298632584E+01   -1.8146019838E+01
-1.7994117217E+01   -1.7842977763E+01   -1.7692652557E+01   -1.7543190706E+01
-1.7394639328E+01   -1.7247043539E+01   -1.7100446433E+01   -1.6954889078E+01
-1.6810410496E+01   -1.6667047661E+01   -1.6524835489E+01   -1.6383806844E+01
-1.6243992534E+01   -1.6105421324E+01   -1.5968119946E+01   -1.5832113118E+01
-1.5697423565E+01   -1.5564072048E+01   -1.5432077394E+01   -1.5301456535E+01
-1.5172224545E+01   -1.5044394685E+01   -1.4917978449E+01   -1.4792985609E+01
-1.4669424268E+01   -1.4547300906E+01   -1.4426620428E+01   -1.4307386209E+01
-1.4189600139E+01   -1.4073262660E+01   -1.3958372801E+01   -1.3844928206E+01
-1.3732925159E+01   -1.3622358596E+01   -1.3513222118E+01   -1.3405507989E+01
-1.3299207135E+01   -1.3194309128E+01   -1.3090802170E+01   -1.2988673068E+01
-1.2887907201E+01   -1.2788488499E+01   -1.2690399394E+01   -1.2593620800E+01
-1.2498131874E+01   -1.2403910122E+01   -1.2310931663E+01   -1.2219172978E+01
-1.2128611905E+01   -1.2039227363E+01   -1.1950997655E+01   -1.1863899010E+01
-1.1777907561E+01   -1.1693000352E+01   -1.1609156494E+01   -1.1526356365E+01
-1.1444581246E+01   -1.1363813613E+01   -1.1284037066E+01   -1.1205236281E+01
-1.1127396998E+01   -1.1050505984E+01   -1.0974551006E+01   -1.0899520789E+01
-1.0825404974E+01   -1.0752194069E+01   -1.0679879389E+01   -1.0608452993E+01
-1.0537907611E+01   -1.0468236565E+01   -1.0399433672E+01   -1.0331493155E+01
-1.0264409533E+01   -1.0198177507E+01   -1.0132791847E+01   -1.0068247262E+01
-1.0004538282E+01   -9.9416591447E+00   -9.8796036149E+00   -9.8183648917E+00
-9.7579354909E+00   -9.6983071446E+00   -9.6394714132E+00   -9.5814190925E+00
-9.5241395520E+00   -9.4676193520E+00   -9.4118365995E+00   -9.3567608708E+00
-9.3023586617E+00   -9.2485969369E+00   -9.1954508940E+00   -9.1429075019E+00
-9.0909580289E+00   -9.0395946079E+00   -8.9888096333E+00   -8.9385928183E+00
-8.8889335219E+00   -8.8398228037E+00   -8.7912518402E+00   -8.7432117362E+00
-8.6956938116E+00   -8.6486895979E+00   -8.6021908123E+00   -8.5561893467E+00
-8.5106772645E+00   -8.4656467974E+00   -8.4210903407E+00   -8.3770004491E+00
-8.3333698322E+00   -8.2901913510E+00   -8.2474580133E+00   -8.2051629706E+00
-8.1632995142E+00   -8.1218610716E+00   -8.0808412030E+00   -8.0402335980E+00
-8.0000320726E+00   -7.9602305657E+00   -7.9208231364E+00   -7.8818039608E+00
-7.8431673291E+00   -7.8049076430E+00   -7.7670194129E+00   -7.7294972554E+00
-7.6923358905E+00   -7.6555301392E+00   -7.6190749213E+00   -7.5829652529E+00
-7.5471962440E+00   -7.5117630966E+00   -7.4766611024E+00   -7.4418856404E+00
-7.4074321756E+00   -7.3732962564E+00   -7.3394735127E+00   -7.3059596547E+00
-7.2727504700E+00   -7.2398418230E+00   -7.2072296523E+00   -7.1749099694E+00
-7.1428788571E+00   -7.1111324678E+00   -7.0796670220E+00   -7.0484788068E+00
-7.0175641744E+00   -6.9869195409E+00   -6.9565413844E+00   -6.9264262443E+00
-6.8965707196E+00   -6.8669714676E+00   -6.8376252027E+00   -6.8085286954E+00
-6.7796787709E+00   -6.7510723077E+00   -6.7227062373E+00   -6.6945775420E+00
-6.6666832547E+00   -6.6390204576E+00   -6.6115862809E+00   -6.5843779023E+00
-6.5573925455E+00   -6.5306274796E+00   -6.5040800184E+00   -6.4777475187E+00
-6.4516273803E+00   -6.4257170447E+00   -6.4000139942E+00   -6.3745157515E+00
-6.3492198782E+00   -6.3241239748E+00   -6.2992256795E+00   -6.2745226675E+00
-6.2500126503E+00   -6.2256933752E+00   -6.2015626242E+00   -6.1776182136E+00
-6.1538579933E+00   -6.1302798463E+00   -6.1068816878E+00   -6.0836614647E+00
-6.0606171550E+00   -6.0377467672E+00   -6.0150483398E+00   -5.9925199407E+00
-5.9701596666E+00   -5.9479656424E+00   -5.9259360211E+00   -5.9040689825E+00
-5.8823627336E+00   -5.8608155073E+00   -5.8394255626E+00   -5.8181911837E+00
-5.7971106796E+00   -5.7761823838E+00   -5.7554046537E+00   -5.7347758704E+00
-5.7142944380E+00   -5.6939587833E+00   -5.6737673555E+00   -5.6537186256E+00
-5.6338110863E+00   -5.6140432514E+00   -5.5944136553E+00   -5.5749208531E+00
-5.5555634197E+00   -5.5363399501E+00   -5.5172490582E+00   -5.4982893773E+00
-5.4794595594E+00   -5.4607582746E+00   -5.4421842116E+00   -5.4237360763E+00
-5.4054125925E+00   -5.3872125012E+00   -5.3691345599E+00   -5.3511775432E+00
-5.3333402417E+00   -5.3156214623E+00   -5.2980200275E+00   -5.2805347754E+00
-5.2631645596E+00   -5.2459082484E+00   -5.2287647251E+00   -5.2117328876E+00
-5.1948116479E+00   -5.1779999322E+00   -5.1612966806E+00   -5.1447008468E+00
-5.1282113979E+00   -5.1118273142E+00   -5.0955475890E+00   -5.0793712283E+00
-5.0632972508E+00   -5.0473246876E+00   -5.0314525819E+00   -5.0156799889E+00
-5.0000059756E+00   -4.9844296207E+00   -4.9689500143E+00   -4.9535662579E+00
-4.9382774637E+00   -4.9230827554E+00   -4.9079812669E+00   -4.8929721430E+00
-4.8780545390E+00   -4.8632276202E+00   -4.8484905622E+00   -4.8338425506E+00
-4.8192827806E+00   -4.8048104573E+00   -4.7904247952E+00   -4.7761250182E+00
-4.7619103594E+00   -4.7477800611E+00   -4.7337333745E+00   -4.7197695596E+00
-4.7058878853E+00   -4.6920876287E+00   -4.6783680758E+00   -4.6647285206E+00
-4.6511682655E+00   -4.6376866208E+00   -4.6242829049E+00   -4.6109564442E+00
-4.5977065725E+00   -4.5845326316E+00   -4.5714339704E+00   -4.5584099457E+00
-4.5454599213E+00   -4.5325832682E+00   -4.5197793647E+00   -4.5070475959E+00
-4.4943873541E+00   -4.4817980380E+00   -4.4692790533E+00   -4.4568298123E+00
-4.4444497337E+00   -4.4321382429E+00   -4.4198947713E+00   -4.4077187568E+00
-4.3956096435E+00   -4.3835668814E+00   -4.3715899267E+00   -4.3596782415E+00
-4.3478312936E+00   -4.3360485567E+00   -4.3243295102E+00   -4.3126736390E+00
-4.3010804336E+00   -4.2895493901E+00   -4.2780800099E+00   -4.2666717994E+00
-4.2553242709E+00   -4.2440369412E+00   -4.2328093327E+00   -4.2216409727E+00
-4.2105313933E+00   -4.1994801317E+00   -4.1884867300E+00   -4.1775507348E+00
-4.1666716978E+00   -4.1558491751E+00   -4.1450827275E+00   -4.1343719202E+00
-4.1237163230E+00   -4.1131155102E+00   -4.1025690603E+00   -4.0920765563E+00
-4.0816375852E+00   -4.0712517385E+00   -4.0609186116E+00   -4.0506378040E+00
-4.0404089196E+00   -4.0302315658E+00   -4.0201053543E+00   -4.0100299006E+00
-4.0000048239E+00   -3.9900297473E+00   -3.9801042978E+00   -3.9702281059E+00
-3.9604008058E+00   -3.9506220354E+00   -3.9408914361E+00   -3.9312086527E+00
-3.9215733338E+00   -3.9119851311E+00   -3.9024436999E+00   -3.8929486989E+00
-3.8834997899E+00   -3.8740966381E+00   -3.8647389119E+00   -3.8554262831E+00
-3.8461584263E+00   -3.8369350194E+00   -3.8277557435E+00   -3.8186202825E+00
-3.8095283236E+00   -3.8004795567E+00   -3.7914736747E+00   -3.7825103736E+00
-3.7735893520E+00   -3.7647103115E+00   -3.7558729564E+00   -3.7470769940E+00
-3.7383221340E+00   -3.7296080890E+00   -3.7209345743E+00   -3.7123013078E+00
-3.7037080100E+00   -3.6951544038E+00   -3.6866402151E+00   -3.6781651719E+00
-3.6697290050E+00   -3.6613314473E+00   -3.6529722345E+00   -3.6446511045E+00
-3.6363677977E+00   -3.6281220568E+00   -3.6199136268E+00   -3.6117422550E+00
-3.6036076911E+00   -3.5955096869E+00   -3.5874479965E+00   -3.5794223762E+00
-3.5714325844E+00   -3.5634783818E+00   -3.5555595311E+00   -3.5476757971E+00
-3.5398269468E+00   -3.5320127491E+00   -3.5242329752E+00   -3.5164873979E+00
-3.5087757924E+00   -3.5010979356E+00   -3.4934536064E+00   -3.4858425858E+00
-3.4782646565E+00   -3.4707196032E+00   -3.4632072123E+00   -3.4557272723E+00
-3.4482795734E+00   -3.4408639075E+00   -3.4334800684E+00   -3.4261278516E+00
-3.4188070546E+00   -3.4115174762E+00   -3.4042589172E+00   -3.3970311801E+00
-3.3898340689E+00   -3.3826673894E+00   -3.3755309490E+00   -3.3684245567E+00
-3.3613480232E+00   -3.3543011606E+00   -3.3472837827E+00   -3.3402957049E+00
-3.3333367441E+00   -3.3264067186E+00   -3.3195054483E+00   -3.3126327547E+00
-3.3057884607E+00   -3.2989723904E+00   -3.2921843698E+00   -3.2854242261E+00
-3.2786917878E+00   -3.2719868851E+00   -3.2653093492E+00   -3.2586590131E+00
-3.2520357108E+00   -3.2454392779E+00   -3.2388695512E+00   -3.2323263688E+00
-3.2258095702E+00   -3.2193189961E+00   -3.2128544885E+00   -3.2064158908E+00
-3.2000030475E+00   -3.1936158043E+00   -3.1872540083E+00   -3.1809175077E+00
-3.1746061519E+00   -3.1683197916E+00   -3.1620582785E+00   -3.1558214657E+00
-3.1496092073E+00   -3.1434213585E+00   -3.1372577758E+00   -3.1311183167E+00
-3.1250028399E+00   -3.1189112050E+00   -3.1128432731E+00   -3.1067989059E+00
-3.1007779665E+00   -3.0947803189E+00   -3.0888058283E+00   -3.0828543608E+00
-3.0769257835E+00   -3.0710199647E+00   -3.0651367736E+00   -3.0592760803E+00
-3.0534377561E+00   -3.0476216732E+00   -3.0418277046E+00   -3.0360557246E+00
-3.0303056081E+00   -3.0245772312E+00   -3.0188704708E+00   -3.0131852049E+00
-3.0075213121E+00   -3.0018786722E+00   -2.9962571659E+00   -2.9906566745E+00
-2.9850770805E+00   -2.9795182671E+00   -2.9739801185E+00   -2.9684625196E+00
-2.9629653562E+00   -2.9574885152E+00   -2.9520318838E+00   -2.9465953506E+00
-2.9411788047E+00   -2.9357821360E+00   -2.9304052354E+00   -2.9250479944E+00
-2.9197103054E+00   -2.9143920615E+00   -2.9090931567E+00   -2.9038134857E+00
-2.8985529440E+00   -2.8933114278E+00   -2.8880888341E+00   -2.8828850605E+00
-2.8777000056E+00   -2.8725335684E+00   -2.8673856490E+00   -2.8622561480E+00
-2.8571449666E+00   -2.8520520069E+00   -2.8469771717E+00   -2.8419203643E+00
-2.8368814889E+00   -2.8318604502E+00   -2.8268571537E+00   -2.8218715056E+00
-2.8169034126E+00   -2.8119527822E+00   -2.8070195225E+00   -2.8021035421E+00
-2.7972047505E+00   -2.7923230577E+00   -2.7874583743E+00   -2.7826106116E+00
-2.7777796814E+00   -2.7729654962E+00   -2.7681679691E+00   -2.7633870139E+00
-2.7586225447E+00   -2.7538744764E+00   -2.7491427246E+00   -2.7444272053E+00
-2.7397278350E+00   -2.7350445309E+00   -2.7303772109E+00   -2.7257257931E+00
-2.7210901966E+00   -2.7164703406E+00   -2.7118661452E+00   -2.7072775309E+00
-2.7027044187E+00   -2.6981467301E+00   -2.6936043873E+00   -2.6890773130E+00
-2.6845654302E+00   -2.6800686626E+00   -2.6755869344E+00   -2.6711201702E+00
-2.6666682953E+00   -2.6622312354E+00   -2.6578089165E+00   -2.6534012653E+00
-2.6490082091E+00   -2.6446296754E+00   -2.6402655923E+00   -2.6359158885E+00
-2.6315804929E+00   -2.6272593351E+00   -2.6229523451E+00   -2.6186594532E+00
-2.6143805905E+00   -2.6101156881E+00   -2.6058646780E+00   -2.6016274924E+00
-2.5974040638E+00   -2.5931943256E+00   -2.5889982110E+00   -2.5848156543E+00
-2.5806465896E+00   -2.5764909520E+00   -2.5723486765E+00   -2.5682196990E+00
-2.5641039553E+00   -2.5600013821E+00   -2.5559119161E+00   -2.5518354947E+00
-2.5477720556E+00   -2.5437215369E+00   -2.5396838769E+00   -2.5356590147E+00
-2.5316468893E+00   -2.5276474406E+00   -2.5236606084E+00   -2.5196863332E+00
-2.5157245557E+00   -2.5117752172E+00   -2.5078382590E+00   -2.5039136231E+00
-2.5000012517E+00   -2.4961010875E+00   -2.4922130733E+00   -2.4883371525E+00
-2.4844732687E+00   -2.4806213660E+00   -2.4767813888E+00   -2.4729532816E+00
-2.4691369897E+00   -2.4653324582E+00   -2.4615396331E+00   -2.4577584603E+00
-2.4539888862E+00   -2.4502308575E+00   -2.4464843214E+00   -2.4427492250E+00
-2.4390255161E+00   -2.4353131428E+00   -2.4316120533E+00   -2.4279221963E+00
-2.4242435207E+00   -2.4205759757E+00   -2.4169195110E+00   -2.4132740763E+00
-2.4096396219E+00   -2.4060160982E+00   -2.4024034560E+00   -2.3988016464E+00
-2.3952106206E+00   -2.3916303303E+00   -2.3880607275E+00   -2.3845017644E+00
-2.3809533934E+00   -2.3774155675E+00   -2.3738882395E+00   -2.3703713629E+00
-2.3668648913E+00   -2.3633687785E+00   -2.3598829788E+00   -2.3564074466E+00