<UPF version="2.0.1">
<PP_INFO>

This pseudopotential file has been produced using the code
ONCVPSP  (Optimized Norm-Conservinng Vanderbilt PSeudopotential)
scalar-relativistic version 3.2.3 08/16/2016 by D. R. Hamann
The code is available through a link at URL www.mat-simresearch.com.
Documentation with the package provides a full discription of the
input data below.


While it is not required under the terms of the GNU GPL, it is
suggested that you cite D. R. Hamann, Phys. Rev. B 88, 085117 (2013)
in any publication using these pseudopotentials.

<PP_INPUTFILE>
# ATOM AND REFERENCE CONFIGURATION
# atsym  z   nc   nv     iexc    psfile
O  8.00    1    2 -116133      upf
#
#   n    l    f        energy (Ha)
1    0    2.00
2    0    2.00
2    1    4.00
#
# PSEUDOPOTENTIAL AND OPTIMIZATION
# lmax
2
#
#   l,   rc,      ep,       ncon, nbas, qcut
0   1.35000  -0.87495    4    8   8.40000
1   1.45000  -0.32980    4    8   9.30000
2   1.25000   0.10000    4    8   6.00000
#
# LOCAL POTENTIAL
# lloc, lpopt,  rc(5),   dvloc0
4    5   1.20000      0.00000
#
# VANDERBILT-KLEINMAN-BYLANDER PROJECTORs
# l, nproj, debl
0    2   1.00000
1    2   1.00000
2    1   1.00000
#
# MODEL CORE CHARGE
# icmod, fcfact, rcfact
3   4.00000   1.50000
#
# LOG DERIVATIVE ANALYSIS
# epsh1, epsh2, depsh
-12.00   12.00    0.02
#
# OUTPUT GRID
# rlmax, drl
6.00    0.01
#
# TEST CONFIGURATIONS
# ncnf
0
# nvcnf
#   n    l    f
</PP_INPUTFILE>
</PP_INFO>
<!--                               -->
<!-- END OF HUMAN READABLE SECTION -->
<!--                               -->
<PP_HEADER
generated="Generated using ONCVPSP code by D. R. Hamann"
author="anonymous"
date="170120"
comment=""
element="O "
pseudo_type="NC"
relativistic="scalar"
is_ultrasoft="F"
is_paw="F"
is_coulomb="F"
has_so="F"
has_wfc="F"
has_gipaw="F"
core_correction="T"
functional="PBESOL"
z_valence="    6.00"
total_psenergy="  -3.14246388982E+01"
rho_cutoff="   9.35000000000E+00"
l_max="2"
l_local="-1"
mesh_size="   936"
number_of_wfc="2"
number_of_proj="5"/>
<PP_MESH>
<PP_R type="real"  size=" 936" columns="8">
0.0000    0.0100    0.0200    0.0300    0.0400    0.0500    0.0600    0.0700
0.0800    0.0900    0.1000    0.1100    0.1200    0.1300    0.1400    0.1500
0.1600    0.1700    0.1800    0.1900    0.2000    0.2100    0.2200    0.2300
0.2400    0.2500    0.2600    0.2700    0.2800    0.2900    0.3000    0.3100
0.3200    0.3300    0.3400    0.3500    0.3600    0.3700    0.3800    0.3900
0.4000    0.4100    0.4200    0.4300    0.4400    0.4500    0.4600    0.4700
0.4800    0.4900    0.5000    0.5100    0.5200    0.5300    0.5400    0.5500
0.5600    0.5700    0.5800    0.5900    0.6000    0.6100    0.6200    0.6300
0.6400    0.6500    0.6600    0.6700    0.6800    0.6900    0.7000    0.7100
0.7200    0.7300    0.7400    0.7500    0.7600    0.7700    0.7800    0.7900
0.8000    0.8100    0.8200    0.8300    0.8400    0.8500    0.8600    0.8700
0.8800    0.8900    0.9000    0.9100    0.9200    0.9300    0.9400    0.9500
0.9600    0.9700    0.9800    0.9900    1.0000    1.0100    1.0200    1.0300
1.0400    1.0500    1.0600    1.0700    1.0800    1.0900    1.1000    1.1100
1.1200    1.1300    1.1400    1.1500    1.1600    1.1700    1.1800    1.1900
1.2000    1.2100    1.2200    1.2300    1.2400    1.2500    1.2600    1.2700
1.2800    1.2900    1.3000    1.3100    1.3200    1.3300    1.3400    1.3500
1.3600    1.3700    1.3800    1.3900    1.4000    1.4100    1.4200    1.4300
1.4400    1.4500    1.4600    1.4700    1.4800    1.4900    1.5000    1.5100
1.5200    1.5300    1.5400    1.5500    1.5600    1.5700    1.5800    1.5900
1.6000    1.6100    1.6200    1.6300    1.6400    1.6500    1.6600    1.6700
1.6800    1.6900    1.7000    1.7100    1.7200    1.7300    1.7400    1.7500
1.7600    1.7700    1.7800    1.7900    1.8000    1.8100    1.8200    1.8300
1.8400    1.8500    1.8600    1.8700    1.8800    1.8900    1.9000    1.9100
1.9200    1.9300    1.9400    1.9500    1.9600    1.9700    1.9800    1.9900
2.0000    2.0100    2.0200    2.0300    2.0400    2.0500    2.0600    2.0700
2.0800    2.0900    2.1000    2.1100    2.1200    2.1300    2.1400    2.1500
2.1600    2.1700    2.1800    2.1900    2.2000    2.2100    2.2200    2.2300
2.2400    2.2500    2.2600    2.2700    2.2800    2.2900    2.3000    2.3100
2.3200    2.3300    2.3400    2.3500    2.3600    2.3700    2.3800    2.3900
2.4000    2.4100    2.4200    2.4300    2.4400    2.4500    2.4600    2.4700
2.4800    2.4900    2.5000    2.5100    2.5200    2.5300    2.5400    2.5500
2.5600    2.5700    2.5800    2.5900    2.6000    2.6100    2.6200    2.6300
2.6400    2.6500    2.6600    2.6700    2.6800    2.6900    2.7000    2.7100
2.7200    2.7300    2.7400    2.7500    2.7600    2.7700    2.7800    2.7900
2.8000    2.8100    2.8200    2.8300    2.8400    2.8500    2.8600    2.8700
2.8800    2.8900    2.9000    2.9100    2.9200    2.9300    2.9400    2.9500
2.9600    2.9700    2.9800    2.9900    3.0000    3.0100    3.0200    3.0300
3.0400    3.0500    3.0600    3.0700    3.0800    3.0900    3.1000    3.1100
3.1200    3.1300    3.1400    3.1500    3.1600    3.1700    3.1800    3.1900
3.2000    3.2100    3.2200    3.2300    3.2400    3.2500    3.2600    3.2700
3.2800    3.2900    3.3000    3.3100    3.3200    3.3300    3.3400    3.3500
3.3600    3.3700    3.3800    3.3900    3.4000    3.4100    3.4200    3.4300
3.4400    3.4500    3.4600    3.4700    3.4800    3.4900    3.5000    3.5100
3.5200    3.5300    3.5400    3.5500    3.5600    3.5700    3.5800    3.5900
3.6000    3.6100    3.6200    3.6300    3.6400    3.6500    3.6600    3.6700
3.6800    3.6900    3.7000    3.7100    3.7200    3.7300    3.7400    3.7500
3.7600    3.7700    3.7800    3.7900    3.8000    3.8100    3.8200    3.8300
3.8400    3.8500    3.8600    3.8700    3.8800    3.8900    3.9000    3.9100
3.9200    3.9300    3.9400    3.9500    3.9600    3.9700    3.9800    3.9900
4.0000    4.0100    4.0200    4.0300    4.0400    4.0500    4.0600    4.0700
4.0800    4.0900    4.1000    4.1100    4.1200    4.1300    4.1400    4.1500
4.1600    4.1700    4.1800    4.1900    4.2000    4.2100    4.2200    4.2300
4.2400    4.2500    4.2600    4.2700    4.2800    4.2900    4.3000    4.3100
4.3200    4.3300    4.3400    4.3500    4.3600    4.3700    4.3800    4.3900
4.4000    4.4100    4.4200    4.4300    4.4400    4.4500    4.4600    4.4700
4.4800    4.4900    4.5000    4.5100    4.5200    4.5300    4.5400    4.5500
4.5600    4.5700    4.5800    4.5900    4.6000    4.6100    4.6200    4.6300
4.6400    4.6500    4.6600    4.6700    4.6800    4.6900    4.7000    4.7100
4.7200    4.7300    4.7400    4.7500    4.7600    4.7700    4.7800    4.7900
4.8000    4.8100    4.8200    4.8300    4.8400    4.8500    4.8600    4.8700
4.8800    4.8900    4.9000    4.9100    4.9200    4.9300    4.9400    4.9500
4.9600    4.9700    4.9800    4.9900    5.0000    5.0100    5.0200    5.0300
5.0400    5.0500    5.0600    5.0700    5.0800    5.0900    5.1000    5.1100
5.1200    5.1300    5.1400    5.1500    5.1600    5.1700    5.1800    5.1900
5.2000    5.2100    5.2200    5.2300    5.2400    5.2500    5.2600    5.2700
5.2800    5.2900    5.3000    5.3100    5.3200    5.3300    5.3400    5.3500
5.3600    5.3700    5.3800    5.3900    5.4000    5.4100    5.4200    5.4300
5.4400    5.4500    5.4600    5.4700    5.4800    5.4900    5.5000    5.5100
5.5200    5.5300    5.5400    5.5500    5.5600    5.5700    5.5800    5.5900
5.6000    5.6100    5.6200    5.6300    5.6400    5.6500    5.6600    5.6700
5.6800    5.6900    5.7000    5.7100    5.7200    5.7300    5.7400    5.7500
5.7600    5.7700    5.7800    5.7900    5.8000    5.8100    5.8200    5.8300
5.8400    5.8500    5.8600    5.8700    5.8800    5.8900    5.9000    5.9100
5.9200    5.9300    5.9400    5.9500    5.9600    5.9700    5.9800    5.9900
6.0000    6.0100    6.0200    6.0300    6.0400    6.0500    6.0600    6.0700
6.0800    6.0900    6.1000    6.1100    6.1200    6.1300    6.1400    6.1500
6.1600    6.1700    6.1800    6.1900    6.2000    6.2100    6.2200    6.2300
6.2400    6.2500    6.2600    6.2700    6.2800    6.2900    6.3000    6.3100
6.3200    6.3300    6.3400    6.3500    6.3600    6.3700    6.3800    6.3900
6.4000    6.4100    6.4200    6.4300    6.4400    6.4500    6.4600    6.4700
6.4800    6.4900    6.5000    6.5100    6.5200    6.5300    6.5400    6.5500
6.5600    6.5700    6.5800    6.5900    6.6000    6.6100    6.6200    6.6300
6.6400    6.6500    6.6600    6.6700    6.6800    6.6900    6.7000    6.7100
6.7200    6.7300    6.7400    6.7500    6.7600    6.7700    6.7800    6.7900
6.8000    6.8100    6.8200    6.8300    6.8400    6.8500    6.8600    6.8700
6.8800    6.8900    6.9000    6.9100    6.9200    6.9300    6.9400    6.9500
6.9600    6.9700    6.9800    6.9900    7.0000    7.0100    7.0200    7.0300
7.0400    7.0500    7.0600    7.0700    7.0800    7.0900    7.1000    7.1100
7.1200    7.1300    7.1400    7.1500    7.1600    7.1700    7.1800    7.1900
7.2000    7.2100    7.2200    7.2300    7.2400    7.2500    7.2600    7.2700
7.2800    7.2900    7.3000    7.3100    7.3200    7.3300    7.3400    7.3500
7.3600    7.3700    7.3800    7.3900    7.4000    7.4100    7.4200    7.4300
7.4400    7.4500    7.4600    7.4700    7.4800    7.4900    7.5000    7.5100
7.5200    7.5300    7.5400    7.5500    7.5600    7.5700    7.5800    7.5900
7.6000    7.6100    7.6200    7.6300    7.6400    7.6500    7.6600    7.6700
7.6800    7.6900    7.7000    7.7100    7.7200    7.7300    7.7400    7.7500
7.7600    7.7700    7.7800    7.7900    7.8000    7.8100    7.8200    7.8300
7.8400    7.8500    7.8600    7.8700    7.8800    7.8900    7.9000    7.9100
7.9200    7.9300    7.9400    7.9500    7.9600    7.9700    7.9800    7.9900
8.0000    8.0100    8.0200    8.0300    8.0400    8.0500    8.0600    8.0700
8.0800    8.0900    8.1000    8.1100    8.1200    8.1300    8.1400    8.1500
8.1600    8.1700    8.1800    8.1900    8.2000    8.2100    8.2200    8.2300
8.2400    8.2500    8.2600    8.2700    8.2800    8.2900    8.3000    8.3100
8.3200    8.3300    8.3400    8.3500    8.3600    8.3700    8.3800    8.3900
8.4000    8.4100    8.4200    8.4300    8.4400    8.4500    8.4600    8.4700
8.4800    8.4900    8.5000    8.5100    8.5200    8.5300    8.5400    8.5500
8.5600    8.5700    8.5800    8.5900    8.6000    8.6100    8.6200    8.6300
8.6400    8.6500    8.6600    8.6700    8.6800    8.6900    8.7000    8.7100
8.7200    8.7300    8.7400    8.7500    8.7600    8.7700    8.7800    8.7900
8.8000    8.8100    8.8200    8.8300    8.8400    8.8500    8.8600    8.8700
8.8800    8.8900    8.9000    8.9100    8.9200    8.9300    8.9400    8.9500
8.9600    8.9700    8.9800    8.9900    9.0000    9.0100    9.0200    9.0300
9.0400    9.0500    9.0600    9.0700    9.0800    9.0900    9.1000    9.1100
9.1200    9.1300    9.1400    9.1500    9.1600    9.1700    9.1800    9.1900
9.2000    9.2100    9.2200    9.2300    9.2400    9.2500    9.2600    9.2700
9.2800    9.2900    9.3000    9.3100    9.3200    9.3300    9.3400    9.3500
</PP_R>
<PP_RAB type="real"  size=" 936" columns="8">
0.0100    0.0100    0.0100    0.0100    0.0100    0.0100    0.0100    0.0100
0.0100    0.0100    0.0100    0.0100    0.0100    0.0100    0.0100    0.0100
0.0100    0.0100    0.0100    0.0100    0.0100    0.0100    0.0100    0.0100
0.0100    0.0100    0.0100    0.0100    0.0100    0.0100    0.0100    0.0100
0.0100    0.0100    0.0100    0.0100    0.0100    0.0100    0.0100    0.0100
0.0100    0.0100    0.0100    0.0100    0.0100    0.0100    0.0100    0.0100
0.0100    0.0100    0.0100    0.0100    0.0100    0.0100    0.0100    0.0100
0.0100    0.0100    0.0100    0.0100    0.0100    0.0100    0.0100    0.0100
0.0100    0.0100    0.0100    0.0100    0.0100    0.0100    0.0100    0.0100
0.0100    0.0100    0.0100    0.0100    0.0100    0.0100    0.0100    0.0100
0.0100    0.0100    0.0100    0.0100    0.0100    0.0100    0.0100    0.0100
0.0100    0.0100    0.0100    0.0100    0.0100    0.0100    0.0100    0.0100
0.0100    0.0100    0.0100    0.0100    0.0100    0.0100    0.0100    0.0100
0.0100    0.0100    0.0100    0.0100    0.0100    0.0100    0.0100    0.0100
0.0100    0.0100    0.0100    0.0100    0.0100    0.0100    0.0100    0.0100
0.0100    0.0100    0.0100    0.0100    0.0100    0.0100    0.0100    0.0100
0.0100    0.0100    0.0100    0.0100    0.0100    0.0100    0.0100    0.0100
0.0100    0.0100    0.0100    0.0100    0.0100    0.0100    0.0100    0.0100
0.0100    0.0100    0.0100    0.0100    0.0100    0.0100    0.0100    0.0100
0.0100    0.0100    0.0100    0.0100    0.0100    0.0100    0.0100    0.0100
0.0100    0.0100    0.0100    0.0100    0.0100    0.0100    0.0100    0.0100
0.0100    0.0100    0.0100    0.0100    0.0100    0.0100    0.0100    0.0100
0.0100    0.0100    0.0100    0.0100    0.0100    0.0100    0.0100    0.0100
0.0100    0.0100    0.0100    0.0100    0.0100    0.0100    0.0100    0.0100
0.0100    0.0100    0.0100    0.0100    0.0100    0.0100    0.0100    0.0100
0.0100    0.0100    0.0100    0.0100    0.0100    0.0100    0.0100    0.0100
0.0100    0.0100    0.0100    0.0100    0.0100    0.0100    0.0100    0.0100
0.0100    0.0100    0.0100    0.0100    0.0100    0.0100    0.0100    0.0100
0.0100    0.0100    0.0100    0.0100    0.0100    0.0100    0.0100    0.0100
0.0100    0.0100    0.0100    0.0100    0.0100    0.0100    0.0100    0.0100
0.0100    0.0100    0.0100    0.0100    0.0100    0.0100    0.0100    0.0100
0.0100    0.0100    0.0100    0.0100    0.0100    0.0100    0.0100    0.0100
0.0100    0.0100    0.0100    0.0100    0.0100    0.0100    0.0100    0.0100
0.0100    0.0100    0.0100    0.0100    0.0100    0.0100    0.0100    0.0100
0.0100    0.0100    0.0100    0.0100    0.0100    0.0100    0.0100    0.0100
0.0100    0.0100    0.0100    0.0100    0.0100    0.0100    0.0100    0.0100
0.0100    0.0100    0.0100    0.0100    0.0100    0.0100    0.0100    0.0100
0.0100    0.0100    0.0100    0.0100    0.0100    0.0100    0.0100    0.0100
0.0100    0.0100    0.0100    0.0100    0.0100    0.0100    0.0100    0.0100
0.0100    0.0100    0.0100    0.0100    0.0100    0.0100    0.0100    0.0100
0.0100    0.0100    0.0100    0.0100    0.0100    0.0100    0.0100    0.0100
0.0100    0.0100    0.0100    0.0100    0.0100    0.0100    0.0100    0.0100
0.0100    0.0100    0.0100    0.0100    0.0100    0.0100    0.0100    0.0100
0.0100    0.0100    0.0100    0.0100    0.0100    0.0100    0.0100    0.0100
0.0100    0.0100    0.0100    0.0100    0.0100    0.0100    0.0100    0.0100
0.0100    0.0100    0.0100    0.0100    0.0100    0.0100    0.0100    0.0100
0.0100    0.0100    0.0100    0.0100    0.0100    0.0100    0.0100    0.0100
0.0100    0.0100    0.0100    0.0100    0.0100    0.0100    0.0100    0.0100
0.0100    0.0100    0.0100    0.0100    0.0100    0.0100    0.0100    0.0100
0.0100    0.0100    0.0100    0.0100    0.0100    0.0100    0.0100    0.0100
0.0100    0.0100    0.0100    0.0100    0.0100    0.0100    0.0100    0.0100
0.0100    0.0100    0.0100    0.0100    0.0100    0.0100    0.0100    0.0100
0.0100    0.0100    0.0100    0.0100    0.0100    0.0100    0.0100    0.0100
0.0100    0.0100    0.0100    0.0100    0.0100    0.0100    0.0100    0.0100
0.0100    0.0100    0.0100    0.0100    0.0100    0.0100    0.0100    0.0100
0.0100    0.0100    0.0100    0.0100    0.0100    0.0100    0.0100    0.0100
0.0100    0.0100    0.0100    0.0100    0.0100    0.0100    0.0100    0.0100
0.0100    0.0100    0.0100    0.0100    0.0100    0.0100    0.0100    0.0100
0.0100    0.0100    0.0100    0.0100    0.0100    0.0100    0.0100    0.0100
0.0100    0.0100    0.0100    0.0100    0.0100    0.0100    0.0100    0.0100
0.0100    0.0100    0.0100    0.0100    0.0100    0.0100    0.0100    0.0100
0.0100    0.0100    0.0100    0.0100    0.0100    0.0100    0.0100    0.0100
0.0100    0.0100    0.0100    0.0100    0.0100    0.0100    0.0100    0.0100
0.0100    0.0100    0.0100    0.0100    0.0100    0.0100    0.0100    0.0100
0.0100    0.0100    0.0100    0.0100    0.0100    0.0100    0.0100    0.0100
0.0100    0.0100    0.0100    0.0100    0.0100    0.0100    0.0100    0.0100
0.0100    0.0100    0.0100    0.0100    0.0100    0.0100    0.0100    0.0100
0.0100    0.0100    0.0100    0.0100    0.0100    0.0100    0.0100    0.0100
0.0100    0.0100    0.0100    0.0100    0.0100    0.0100    0.0100    0.0100
0.0100    0.0100    0.0100    0.0100    0.0100    0.0100    0.0100    0.0100
0.0100    0.0100    0.0100    0.0100    0.0100    0.0100    0.0100    0.0100
0.0100    0.0100    0.0100    0.0100    0.0100    0.0100    0.0100    0.0100
0.0100    0.0100    0.0100    0.0100    0.0100    0.0100    0.0100    0.0100
0.0100    0.0100    0.0100    0.0100    0.0100    0.0100    0.0100    0.0100
0.0100    0.0100    0.0100    0.0100    0.0100    0.0100    0.0100    0.0100
0.0100    0.0100    0.0100    0.0100    0.0100    0.0100    0.0100    0.0100
0.0100    0.0100    0.0100    0.0100    0.0100    0.0100    0.0100    0.0100
0.0100    0.0100    0.0100    0.0100    0.0100    0.0100    0.0100    0.0100
0.0100    0.0100    0.0100    0.0100    0.0100    0.0100    0.0100    0.0100
0.0100    0.0100    0.0100    0.0100    0.0100    0.0100    0.0100    0.0100
0.0100    0.0100    0.0100    0.0100    0.0100    0.0100    0.0100    0.0100
0.0100    0.0100    0.0100    0.0100    0.0100    0.0100    0.0100    0.0100
0.0100    0.0100    0.0100    0.0100    0.0100    0.0100    0.0100    0.0100
0.0100    0.0100    0.0100    0.0100    0.0100    0.0100    0.0100    0.0100
0.0100    0.0100    0.0100    0.0100    0.0100    0.0100    0.0100    0.0100
0.0100    0.0100    0.0100    0.0100    0.0100    0.0100    0.0100    0.0100
0.0100    0.0100    0.0100    0.0100    0.0100    0.0100    0.0100    0.0100
0.0100    0.0100    0.0100    0.0100    0.0100    0.0100    0.0100    0.0100
0.0100    0.0100    0.0100    0.0100    0.0100    0.0100    0.0100    0.0100
0.0100    0.0100    0.0100    0.0100    0.0100    0.0100    0.0100    0.0100
0.0100    0.0100    0.0100    0.0100    0.0100    0.0100    0.0100    0.0100
0.0100    0.0100    0.0100    0.0100    0.0100    0.0100    0.0100    0.0100
0.0100    0.0100    0.0100    0.0100    0.0100    0.0100    0.0100    0.0100
0.0100    0.0100    0.0100    0.0100    0.0100    0.0100    0.0100    0.0100
0.0100    0.0100    0.0100    0.0100    0.0100    0.0100    0.0100    0.0100
0.0100    0.0100    0.0100    0.0100    0.0100    0.0100    0.0100    0.0100
0.0100    0.0100    0.0100    0.0100    0.0100    0.0100    0.0100    0.0100
0.0100    0.0100    0.0100    0.0100    0.0100    0.0100    0.0100    0.0100
0.0100    0.0100    0.0100    0.0100    0.0100    0.0100    0.0100    0.0100
0.0100    0.0100    0.0100    0.0100    0.0100    0.0100    0.0100    0.0100
0.0100    0.0100    0.0100    0.0100    0.0100    0.0100    0.0100    0.0100
0.0100    0.0100    0.0100    0.0100    0.0100    0.0100    0.0100    0.0100
0.0100    0.0100    0.0100    0.0100    0.0100    0.0100    0.0100    0.0100
0.0100    0.0100    0.0100    0.0100    0.0100    0.0100    0.0100    0.0100
0.0100    0.0100    0.0100    0.0100    0.0100    0.0100    0.0100    0.0100
0.0100    0.0100    0.0100    0.0100    0.0100    0.0100    0.0100    0.0100
0.0100    0.0100    0.0100    0.0100    0.0100    0.0100    0.0100    0.0100
0.0100    0.0100    0.0100    0.0100    0.0100    0.0100    0.0100    0.0100
0.0100    0.0100    0.0100    0.0100    0.0100    0.0100    0.0100    0.0100
0.0100    0.0100    0.0100    0.0100    0.0100    0.0100    0.0100    0.0100
0.0100    0.0100    0.0100    0.0100    0.0100    0.0100    0.0100    0.0100
0.0100    0.0100    0.0100    0.0100    0.0100    0.0100    0.0100    0.0100
0.0100    0.0100    0.0100    0.0100    0.0100    0.0100    0.0100    0.0100
0.0100    0.0100    0.0100    0.0100    0.0100    0.0100    0.0100    0.0100
0.0100    0.0100    0.0100    0.0100    0.0100    0.0100    0.0100    0.0100
0.0100    0.0100    0.0100    0.0100    0.0100    0.0100    0.0100    0.0100
0.0100    0.0100    0.0100    0.0100    0.0100    0.0100    0.0100    0.0100
</PP_RAB>
</PP_MESH>
<PP_LOCAL type="real"  size=" 936" columns="4">
-2.0552005749E+01   -2.0550835126E+01   -2.0547336555E+01   -2.0541549727E+01
-2.0533538453E+01   -2.0523387481E+01   -2.0511198338E+01   -2.0497084569E+01
-2.0481166666E+01   -2.0463567046E+01   -2.0444405316E+01   -2.0423794083E+01
-2.0401835440E+01   -2.0378618200E+01   -2.0354215918E+01   -2.0328685640E+01
-2.0302067316E+01   -2.0274383767E+01   -2.0245641102E+01   -2.0215829475E+01
-2.0184924071E+01   -2.0152886232E+01   -2.0119664660E+01   -2.0085196629E+01
-2.0049409162E+01   -2.0012220160E+01   -1.9973539458E+01   -1.9933269799E+01
-1.9891307751E+01   -1.9847544538E+01   -1.9801866846E+01   -1.9754157573E+01
-1.9704296586E+01   -1.9652161486E+01   -1.9597628415E+01   -1.9540572964E+01
-1.9480871197E+01   -1.9418400873E+01   -1.9353042909E+01   -1.9284683140E+01
-1.9213214425E+01   -1.9138539117E+01   -1.9060571894E+01   -1.8979242854E+01
-1.8894500780E+01   -1.8806316334E+01   -1.8714684945E+01   -1.8619629071E+01
-1.8521199534E+01   -1.8419475651E+01   -1.8314564006E+01   -1.8206595824E+01
-1.8095723074E+01   -1.7982113605E+01   -1.7865945720E+01   -1.7747402695E+01
-1.7626667695E+01   -1.7503919508E+01   -1.7379329363E+01   -1.7253058933E+01
-1.7125259509E+01   -1.6996072159E+01   -1.6865628669E+01   -1.6734052967E+01
-1.6601462795E+01   -1.6467971392E+01   -1.6333689013E+01   -1.6198724176E+01
-1.6063184570E+01   -1.5927177592E+01   -1.5790810537E+01   -1.5654190491E+01
-1.5517423954E+01   -1.5380616295E+01   -1.5243871074E+01   -1.5107289330E+01
-1.4970968858E+01   -1.4835003556E+01   -1.4699482859E+01   -1.4564491295E+01
-1.4430108178E+01   -1.4296407428E+01   -1.4163457533E+01   -1.4031321621E+01
-1.3900057647E+01   -1.3769718644E+01   -1.3640353058E+01   -1.3512005104E+01
-1.3384715165E+01   -1.3258520180E+01   -1.3133454041E+01   -1.3009547958E+01
-1.2886830803E+01   -1.2765329416E+01   -1.2645068877E+01   -1.2526072730E+01
-1.2408363165E+01   -1.2291961159E+01   -1.2176886577E+01   -1.2063158226E+01
-1.1950793879E+01   -1.1839810264E+01   -1.1730223015E+01   -1.1622046604E+01
-1.1515294249E+01   -1.1409977796E+01   -1.1306107593E+01   -1.1203692345E+01
-1.1102738965E+01   -1.1003252419E+01   -1.0905235568E+01   -1.0808689007E+01
-1.0713610916E+01   -1.0619996905E+01   -1.0527839876E+01   -1.0437129883E+01
-1.0347854011E+01   -1.0259996257E+01   -1.0173537421E+01   -1.0088455060E+01
-1.0004723267E+01   -9.9223126826E+00   -9.8411923279E+00   -9.7613314179E+00
-9.6827006230E+00   -9.6052716838E+00   -9.5290174601E+00   -9.4539119084E+00
-9.3799300627E+00   -9.3070480349E+00   -9.2352429722E+00   -9.1644930872E+00
-9.0947773250E+00   -9.0260754044E+00   -8.9583683364E+00   -8.8916402921E+00
-8.8258806594E+00   -8.7610823835E+00   -8.6972392802E+00   -8.6343406387E+00
-8.5723722953E+00   -8.5113182109E+00   -8.4511640872E+00   -8.3918971261E+00
-8.3335035260E+00   -8.2759642648E+00   -8.2192515581E+00   -8.1633331368E+00
-8.1081763985E+00   -8.0537573330E+00   -8.0000600096E+00   -7.9470725310E+00
-7.8947841472E+00   -7.8431811278E+00   -7.7922494444E+00   -7.7419757668E+00
-7.6923472430E+00   -7.6433516978E+00   -7.5949770952E+00   -7.5472115359E+00
-7.5000434587E+00   -7.4534615956E+00   -7.4074549473E+00   -7.3620127911E+00
-7.3171246444E+00   -7.2727803030E+00   -7.2289699388E+00   -7.1856839370E+00
-7.1429128057E+00   -7.1006472122E+00   -7.0588777875E+00   -7.0175955664E+00
-6.9767925224E+00   -6.9364610340E+00   -6.8965937085E+00   -6.8571831531E+00
-6.8182213382E+00   -6.7797001139E+00   -6.7416117434E+00   -6.7039487924E+00
-6.6667041802E+00   -6.6298711129E+00   -6.5934428651E+00   -6.5574127589E+00
-6.5217742773E+00   -6.4865210805E+00   -6.4516469585E+00   -6.4171458280E+00
-6.3830117368E+00   -6.3492388588E+00   -6.3158214904E+00   -6.2827540477E+00
-6.2500310629E+00   -6.2176471817E+00   -6.1855971600E+00   -6.1538758615E+00
-6.1224782545E+00   -6.0913994096E+00   -6.0606344969E+00   -6.0301787838E+00
-6.0000276321E+00   -5.9701764959E+00   -5.9406209196E+00   -5.9113565350E+00
-5.8823790599E+00   -5.8536842955E+00   -5.8252681245E+00   -5.7971265092E+00
-5.7692554896E+00   -5.7416511814E+00   -5.7143097744E+00   -5.6872275305E+00
-5.6604007823E+00   -5.6338259311E+00   -5.6074994455E+00   -5.5814178599E+00
-5.5555777729E+00   -5.5299758456E+00   -5.5046088005E+00   -5.4794734200E+00
-5.4545665449E+00   -5.4298850734E+00   -5.4054259592E+00   -5.3811862111E+00
-5.3571628909E+00   -5.3333531130E+00   -5.3097540425E+00   -5.2863628948E+00
-5.2631769340E+00   -5.2401934720E+00   -5.2174098675E+00   -5.1948235248E+00
-5.1724318930E+00   -5.1502324653E+00   -5.1282227772E+00   -5.1064004066E+00
-5.0847629723E+00   -5.0633081333E+00   -5.0420335879E+00   -5.0209370730E+00
-5.0000163632E+00   -4.9792692700E+00   -4.9586936411E+00   -4.9382873596E+00
-4.9180483434E+00   -4.8979745442E+00   -4.8780639473E+00   -4.8583145705E+00
-4.8387244633E+00   -4.8192917070E+00   -4.8000144132E+00   -4.7808907239E+00
-4.7619188105E+00   -4.7430968732E+00   -4.7244231405E+00   -4.7058958691E+00
-4.6875133424E+00   -4.6692738708E+00   -4.6511757910E+00   -4.6332174653E+00
-4.6153972809E+00   -4.5977136502E+00   -4.5801650094E+00   -4.5627498189E+00
-4.5454665622E+00   -4.5283137456E+00   -4.5112898980E+00   -4.4943935704E+00
-4.4776233353E+00   -4.4609777865E+00   -4.4444555386E+00   -4.4280552266E+00
-4.4117755057E+00   -4.3956150507E+00   -4.3795725557E+00   -4.3636467341E+00
-4.3478363175E+00   -4.3321400562E+00   -4.3165567182E+00   -4.3010850894E+00
-4.2857239728E+00   -4.2704721886E+00   -4.2553285738E+00   -4.2402919817E+00
-4.2253612818E+00   -4.2105353593E+00   -4.1958131154E+00   -4.1811934663E+00
-4.1666753431E+00   -4.1522576922E+00   -4.1379394741E+00   -4.1237196638E+00
-4.1095972502E+00   -4.0955712361E+00   -4.0816406379E+00   -4.0678044853E+00
-4.0540618209E+00   -4.0404117006E+00   -4.0268531927E+00   -4.0133853780E+00
-4.0000073495E+00   -3.9867182125E+00   -3.9735170839E+00   -3.9604030923E+00
-3.9473753779E+00   -3.9344330920E+00   -3.9215753971E+00   -3.9088014666E+00
-3.8961104846E+00   -3.8835016458E+00   -3.8709741552E+00   -3.8585272283E+00
-3.8461600902E+00   -3.8338719763E+00   -3.8216621316E+00   -3.8095298107E+00
-3.7974742775E+00   -3.7854948054E+00   -3.7735906768E+00   -3.7617611832E+00
-3.7500056249E+00   -3.7383233108E+00   -3.7267135587E+00   -3.7151756945E+00
-3.7037090526E+00   -3.6923129756E+00   -3.6809868141E+00   -3.6697299267E+00
-3.6585416797E+00   -3.6474214473E+00   -3.6363686112E+00   -3.6253825605E+00
-3.6144626917E+00   -3.6036084086E+00   -3.5928191222E+00   -3.5820942502E+00
-3.5714332176E+00   -3.5608354562E+00   -3.5503004042E+00   -3.5398275068E+00
-3.5294162155E+00   -3.5190659883E+00   -3.5087762897E+00   -3.4985465900E+00
-3.4883763662E+00   -3.4782651010E+00   -3.4682122833E+00   -3.4582174076E+00
-3.4482799745E+00   -3.4383994902E+00   -3.4285754666E+00   -3.4188074211E+00
-3.4090948765E+00   -3.3994373613E+00   -3.3898344090E+00   -3.3802855585E+00
-3.3707903540E+00   -3.3613483446E+00   -3.3519590845E+00   -3.3426221329E+00
-3.3333370539E+00   -3.3241034164E+00   -3.3149207941E+00   -3.3057887654E+00
-3.2967069133E+00   -3.2876748253E+00   -3.2786920936E+00   -3.2697583147E+00
-3.2608730895E+00   -3.2520360232E+00   -3.2432467253E+00   -3.2345048097E+00
-3.2258098941E+00   -3.2171616005E+00   -3.2085595550E+00   -3.2000033875E+00
-3.1914927320E+00   -3.1830272264E+00   -3.1746065122E+00   -3.1662302349E+00
-3.1578980437E+00   -3.1496095915E+00   -3.1413645346E+00   -3.1331625333E+00
-3.1250032512E+00   -3.1168863552E+00   -3.1088115161E+00   -3.1007784077E+00
-3.0927867075E+00   -3.0848360960E+00   -3.0769262572E+00   -3.0690568782E+00
-3.0612276494E+00   -3.0534382643E+00   -3.0456884194E+00   -3.0379778146E+00
-3.0303061524E+00   -3.0226731387E+00   -3.0150784821E+00   -3.0075218941E+00
-3.0000030893E+00   -2.9925217849E+00   -2.9850777012E+00   -2.9776705610E+00
-2.9703000900E+00   -2.9629660166E+00   -2.9556680718E+00   -2.9484059892E+00
-2.9411795053E+00   -2.9339883588E+00   -2.9268322912E+00   -2.9197110464E+00
-2.9126243710E+00   -2.9055720136E+00   -2.8985537258E+00   -2.8915692611E+00
-2.8846183756E+00   -2.8777008278E+00   -2.8708163784E+00   -2.8639647905E+00
-2.8571458291E+00   -2.8503592620E+00   -2.8436048588E+00   -2.8368823913E+00
-2.8301916336E+00   -2.8235323618E+00   -2.8169043543E+00   -2.8103073913E+00
-2.8037412553E+00   -2.7972057307E+00   -2.7907006039E+00   -2.7842256632E+00
-2.7777806992E+00   -2.7713655040E+00   -2.7649798720E+00   -2.7586235992E+00
-2.7522964836E+00   -2.7459983250E+00   -2.7397289251E+00   -2.7334880874E+00
-2.7272756171E+00   -2.7210913212E+00   -2.7149350086E+00   -2.7088064896E+00
-2.7027055766E+00   -2.6966320833E+00   -2.6905858254E+00   -2.6845666201E+00
-2.6785742861E+00   -2.6726086441E+00   -2.6666695159E+00   -2.6607567253E+00
-2.6548700974E+00   -2.6490094590E+00   -2.6431746383E+00   -2.6373654651E+00
-2.6315817707E+00   -2.6258233878E+00   -2.6200901506E+00   -2.6143818947E+00
-2.6086984573E+00   -2.6030396768E+00   -2.5974053932E+00   -2.5917954476E+00
-2.5862096827E+00   -2.5806479426E+00   -2.5751100725E+00   -2.5695959191E+00
-2.5641053304E+00   -2.5586381557E+00   -2.5531942454E+00   -2.5477734515E+00
-2.5423756270E+00   -2.5370006261E+00   -2.5316483045E+00   -2.5263185189E+00
-2.5210111273E+00   -2.5157259888E+00   -2.5104629638E+00   -2.5052219137E+00
-2.5000027013E+00   -2.4948051903E+00   -2.4896292457E+00   -2.4844747334E+00
-2.4793415207E+00   -2.4742294759E+00   -2.4691384681E+00   -2.4640683679E+00
-2.4590190467E+00   -2.4539903771E+00   -2.4489822326E+00   -2.4439944877E+00
-2.4390270182E+00   -2.4340797006E+00   -2.4291524125E+00   -2.4242450326E+00
-2.4193574404E+00   -2.4144895166E+00   -2.4096411425E+00   -2.4048122008E+00