<UPF version="2.0.1">
<PP_INFO>

This pseudopotential file has been produced using the code
ONCVPSP  (Optimized Norm-Conservinng Vanderbilt PSeudopotential)
scalar-relativistic version 3.2.3 08/16/2016 by D. R. Hamann
The code is available through a link at URL www.mat-simresearch.com.
Documentation with the package provides a full discription of the
input data below.


While it is not required under the terms of the GNU GPL, it is
suggested that you cite D. R. Hamann, Phys. Rev. B 88, 085117 (2013)
in any publication using these pseudopotentials.

<PP_INPUTFILE>
# ATOM AND REFERENCE CONFIGURATION
# atsym  z   nc   nv     iexc    psfile
Ar 18.00    3    2 -116133      upf
#
#   n    l    f        energy (Ha)
1    0    2.00
2    0    2.00
2    1    6.00
3    0    2.00
3    1    6.00
#
# PSEUDOPOTENTIAL AND OPTIMIZATION
# lmax
2
#
#   l,   rc,      ep,       ncon, nbas, qcut
0   1.55000  -0.88937    4    8   8.20000
1   1.55000  -0.37606    4    8   8.20000
2   1.55000   0.10000    4    8   8.20000
#
# LOCAL POTENTIAL
# lloc, lpopt,  rc(5),   dvloc0
4    5   1.50000      0.00000
#
# VANDERBILT-KLEINMAN-BYLANDER PROJECTORs
# l, nproj, debl
0    2   1.50000
1    2   1.50000
2    2   1.00000
#
# MODEL CORE CHARGE
# icmod, fcfact, rcfact
3   7.00000   1.25000
#
# LOG DERIVATIVE ANALYSIS
# epsh1, epsh2, depsh
-12.00   12.00    0.02
#
# OUTPUT GRID
# rlmax, drl
4.00    0.01
#
# TEST CONFIGURATIONS
# ncnf
0
# nvcnf
#   n    l    f
</PP_INPUTFILE>
</PP_INFO>
<!--                               -->
<!-- END OF HUMAN READABLE SECTION -->
<!--                               -->
<PP_HEADER
generated="Generated using ONCVPSP code by D. R. Hamann"
author="anonymous"
date="170120"
comment=""
element="Ar"
pseudo_type="NC"
relativistic="scalar"
is_ultrasoft="F"
is_paw="F"
is_coulomb="F"
has_so="F"
has_wfc="F"
has_gipaw="F"
core_correction="T"
functional="PBESOL"
z_valence="    8.00"
total_psenergy="  -4.22727747029E+01"
rho_cutoff="   9.37000000000E+00"
l_max="2"
l_local="-1"
mesh_size="   938"
number_of_wfc="2"
number_of_proj="6"/>
<PP_MESH>
<PP_R type="real"  size=" 938" columns="8">
0.0000    0.0100    0.0200    0.0300    0.0400    0.0500    0.0600    0.0700
0.0800    0.0900    0.1000    0.1100    0.1200    0.1300    0.1400    0.1500
0.1600    0.1700    0.1800    0.1900    0.2000    0.2100    0.2200    0.2300
0.2400    0.2500    0.2600    0.2700    0.2800    0.2900    0.3000    0.3100
0.3200    0.3300    0.3400    0.3500    0.3600    0.3700    0.3800    0.3900
0.4000    0.4100    0.4200    0.4300    0.4400    0.4500    0.4600    0.4700
0.4800    0.4900    0.5000    0.5100    0.5200    0.5300    0.5400    0.5500
0.5600    0.5700    0.5800    0.5900    0.6000    0.6100    0.6200    0.6300
0.6400    0.6500    0.6600    0.6700    0.6800    0.6900    0.7000    0.7100
0.7200    0.7300    0.7400    0.7500    0.7600    0.7700    0.7800    0.7900
0.8000    0.8100    0.8200    0.8300    0.8400    0.8500    0.8600    0.8700
0.8800    0.8900    0.9000    0.9100    0.9200    0.9300    0.9400    0.9500
0.9600    0.9700    0.9800    0.9900    1.0000    1.0100    1.0200    1.0300
1.0400    1.0500    1.0600    1.0700    1.0800    1.0900    1.1000    1.1100
1.1200    1.1300    1.1400    1.1500    1.1600    1.1700    1.1800    1.1900
1.2000    1.2100    1.2200    1.2300    1.2400    1.2500    1.2600    1.2700
1.2800    1.2900    1.3000    1.3100    1.3200    1.3300    1.3400    1.3500
1.3600    1.3700    1.3800    1.3900    1.4000    1.4100    1.4200    1.4300
1.4400    1.4500    1.4600    1.4700    1.4800    1.4900    1.5000    1.5100
1.5200    1.5300    1.5400    1.5500    1.5600    1.5700    1.5800    1.5900
1.6000    1.6100    1.6200    1.6300    1.6400    1.6500    1.6600    1.6700
1.6800    1.6900    1.7000    1.7100    1.7200    1.7300    1.7400    1.7500
1.7600    1.7700    1.7800    1.7900    1.8000    1.8100    1.8200    1.8300
1.8400    1.8500    1.8600    1.8700    1.8800    1.8900    1.9000    1.9100
1.9200    1.9300    1.9400    1.9500    1.9600    1.9700    1.9800    1.9900
2.0000    2.0100    2.0200    2.0300    2.0400    2.0500    2.0600    2.0700
2.0800    2.0900    2.1000    2.1100    2.1200    2.1300    2.1400    2.1500
2.1600    2.1700    2.1800    2.1900    2.2000    2.2100    2.2200    2.2300
2.2400    2.2500    2.2600    2.2700    2.2800    2.2900    2.3000    2.3100
2.3200    2.3300    2.3400    2.3500    2.3600    2.3700    2.3800    2.3900
2.4000    2.4100    2.4200    2.4300    2.4400    2.4500    2.4600    2.4700
2.4800    2.4900    2.5000    2.5100    2.5200    2.5300    2.5400    2.5500
2.5600    2.5700    2.5800    2.5900    2.6000    2.6100    2.6200    2.6300
2.6400    2.6500    2.6600    2.6700    2.6800    2.6900    2.7000    2.7100
2.7200    2.7300    2.7400    2.7500    2.7600    2.7700    2.7800    2.7900
2.8000    2.8100    2.8200    2.8300    2.8400    2.8500    2.8600    2.8700
2.8800    2.8900    2.9000    2.9100    2.9200    2.9300    2.9400    2.9500
2.9600    2.9700    2.9800    2.9900    3.0000    3.0100    3.0200    3.0300
3.0400    3.0500    3.0600    3.0700    3.0800    3.0900    3.1000    3.1100
3.1200    3.1300    3.1400    3.1500    3.1600    3.1700    3.1800    3.1900
3.2000    3.2100    3.2200    3.2300    3.2400    3.2500    3.2600    3.2700
3.2800    3.2900    3.3000    3.3100    3.3200    3.3300    3.3400    3.3500
3.3600    3.3700    3.3800    3.3900    3.4000    3.4100    3.4200    3.4300
3.4400    3.4500    3.4600    3.4700    3.4800    3.4900    3.5000    3.5100
3.5200    3.5300    3.5400    3.5500    3.5600    3.5700    3.5800    3.5900
3.6000    3.6100    3.6200    3.6300    3.6400    3.6500    3.6600    3.6700
3.6800    3.6900    3.7000    3.7100    3.7200    3.7300    3.7400    3.7500
3.7600    3.7700    3.7800    3.7900    3.8000    3.8100    3.8200    3.8300
3.8400    3.8500    3.8600    3.8700    3.8800    3.8900    3.9000    3.9100
3.9200    3.9300    3.9400    3.9500    3.9600    3.9700    3.9800    3.9900
4.0000    4.0100    4.0200    4.0300    4.0400    4.0500    4.0600    4.0700
4.0800    4.0900    4.1000    4.1100    4.1200    4.1300    4.1400    4.1500
4.1600    4.1700    4.1800    4.1900    4.2000    4.2100    4.2200    4.2300
4.2400    4.2500    4.2600    4.2700    4.2800    4.2900    4.3000    4.3100
4.3200    4.3300    4.3400    4.3500    4.3600    4.3700    4.3800    4.3900
4.4000    4.4100    4.4200    4.4300    4.4400    4.4500    4.4600    4.4700
4.4800    4.4900    4.5000    4.5100    4.5200    4.5300    4.5400    4.5500
4.5600    4.5700    4.5800    4.5900    4.6000    4.6100    4.6200    4.6300
4.6400    4.6500    4.6600    4.6700    4.6800    4.6900    4.7000    4.7100
4.7200    4.7300    4.7400    4.7500    4.7600    4.7700    4.7800    4.7900
4.8000    4.8100    4.8200    4.8300    4.8400    4.8500    4.8600    4.8700
4.8800    4.8900    4.9000    4.9100    4.9200    4.9300    4.9400    4.9500
4.9600    4.9700    4.9800    4.9900    5.0000    5.0100    5.0200    5.0300
5.0400    5.0500    5.0600    5.0700    5.0800    5.0900    5.1000    5.1100
5.1200    5.1300    5.1400    5.1500    5.1600    5.1700    5.1800    5.1900
5.2000    5.2100    5.2200    5.2300    5.2400    5.2500    5.2600    5.2700
5.2800    5.2900    5.3000    5.3100    5.3200    5.3300    5.3400    5.3500
5.3600    5.3700    5.3800    5.3900    5.4000    5.4100    5.4200    5.4300
5.4400    5.4500    5.4600    5.4700    5.4800    5.4900    5.5000    5.5100
5.5200    5.5300    5.5400    5.5500    5.5600    5.5700    5.5800    5.5900
5.6000    5.6100    5.6200    5.6300    5.6400    5.6500    5.6600    5.6700
5.6800    5.6900    5.7000    5.7100    5.7200    5.7300    5.7400    5.7500
5.7600    5.7700    5.7800    5.7900    5.8000    5.8100    5.8200    5.8300
5.8400    5.8500    5.8600    5.8700    5.8800    5.8900    5.9000    5.9100
5.9200    5.9300    5.9400    5.9500    5.9600    5.9700    5.9800    5.9900
6.0000    6.0100    6.0200    6.0300    6.0400    6.0500    6.0600    6.0700
6.0800    6.0900    6.1000    6.1100    6.1200    6.1300    6.1400    6.1500
6.1600    6.1700    6.1800    6.1900    6.2000    6.2100    6.2200    6.2300
6.2400    6.2500    6.2600    6.2700    6.2800    6.2900    6.3000    6.3100
6.3200    6.3300    6.3400    6.3500    6.3600    6.3700    6.3800    6.3900
6.4000    6.4100    6.4200    6.4300    6.4400    6.4500    6.4600    6.4700
6.4800    6.4900    6.5000    6.5100    6.5200    6.5300    6.5400    6.5500
6.5600    6.5700    6.5800    6.5900    6.6000    6.6100    6.6200    6.6300
6.6400    6.6500    6.6600    6.6700    6.6800    6.6900    6.7000    6.7100
6.7200    6.7300    6.7400    6.7500    6.7600    6.7700    6.7800    6.7900
6.8000    6.8100    6.8200    6.8300    6.8400    6.8500    6.8600    6.8700
6.8800    6.8900    6.9000    6.9100    6.9200    6.9300    6.9400    6.9500
6.9600    6.9700    6.9800    6.9900    7.0000    7.0100    7.0200    7.0300
7.0400    7.0500    7.0600    7.0700    7.0800    7.0900    7.1000    7.1100
7.1200    7.1300    7.1400    7.1500    7.1600    7.1700    7.1800    7.1900
7.2000    7.2100    7.2200    7.2300    7.2400    7.2500    7.2600    7.2700
7.2800    7.2900    7.3000    7.3100    7.3200    7.3300    7.3400    7.3500
7.3600    7.3700    7.3800    7.3900    7.4000    7.4100    7.4200    7.4300
7.4400    7.4500    7.4600    7.4700    7.4800    7.4900    7.5000    7.5100
7.5200    7.5300    7.5400    7.5500    7.5600    7.5700    7.5800    7.5900
7.6000    7.6100    7.6200    7.6300    7.6400    7.6500    7.6600    7.6700
7.6800    7.6900    7.7000    7.7100    7.7200    7.7300    7.7400    7.7500
7.7600    7.7700    7.7800    7.7900    7.8000    7.8100    7.8200    7.8300
7.8400    7.8500    7.8600    7.8700    7.8800    7.8900    7.9000    7.9100
7.9200    7.9300    7.9400    7.9500    7.9600    7.9700    7.9800    7.9900
8.0000    8.0100    8.0200    8.0300    8.0400    8.0500    8.0600    8.0700
8.0800    8.0900    8.1000    8.1100    8.1200    8.1300    8.1400    8.1500
8.1600    8.1700    8.1800    8.1900    8.2000    8.2100    8.2200    8.2300
8.2400    8.2500    8.2600    8.2700    8.2800    8.2900    8.3000    8.3100
8.3200    8.3300    8.3400    8.3500    8.3600    8.3700    8.3800    8.3900
8.4000    8.4100    8.4200    8.4300    8.4400    8.4500    8.4600    8.4700
8.4800    8.4900    8.5000    8.5100    8.5200    8.5300    8.5400    8.5500
8.5600    8.5700    8.5800    8.5900    8.6000    8.6100    8.6200    8.6300
8.6400    8.6500    8.6600    8.6700    8.6800    8.6900    8.7000    8.7100
8.7200    8.7300    8.7400    8.7500    8.7600    8.7700    8.7800    8.7900
8.8000    8.8100    8.8200    8.8300    8.8400    8.8500    8.8600    8.8700
8.8800    8.8900    8.9000    8.9100    8.9200    8.9300    8.9400    8.9500
8.9600    8.9700    8.9800    8.9900    9.0000    9.0100    9.0200    9.0300
9.0400    9.0500    9.0600    9.0700    9.0800    9.0900    9.1000    9.1100
9.1200    9.1300    9.1400    9.1500    9.1600    9.1700    9.1800    9.1900
9.2000    9.2100    9.2200    9.2300    9.2400    9.2500    9.2600    9.2700
9.2800    9.2900    9.3000    9.3100    9.3200    9.3300    9.3400    9.3500
9.3600    9.3700
</PP_R>
<PP_RAB type="real"  size=" 938" columns="8">
0.0100    0.0100    0.0100    0.0100    0.0100    0.0100    0.0100    0.0100
0.0100    0.0100    0.0100    0.0100    0.0100    0.0100    0.0100    0.0100
0.0100    0.0100    0.0100    0.0100    0.0100    0.0100    0.0100    0.0100
0.0100    0.0100    0.0100    0.0100    0.0100    0.0100    0.0100    0.0100
0.0100    0.0100    0.0100    0.0100    0.0100    0.0100    0.0100    0.0100
0.0100    0.0100    0.0100    0.0100    0.0100    0.0100    0.0100    0.0100
0.0100    0.0100    0.0100    0.0100    0.0100    0.0100    0.0100    0.0100
0.0100    0.0100    0.0100    0.0100    0.0100    0.0100    0.0100    0.0100
0.0100    0.0100    0.0100    0.0100    0.0100    0.0100    0.0100    0.0100
0.0100    0.0100    0.0100    0.0100    0.0100    0.0100    0.0100    0.0100
0.0100    0.0100    0.0100    0.0100    0.0100    0.0100    0.0100    0.0100
0.0100    0.0100    0.0100    0.0100    0.0100    0.0100    0.0100    0.0100
0.0100    0.0100    0.0100    0.0100    0.0100    0.0100    0.0100    0.0100
0.0100    0.0100    0.0100    0.0100    0.0100    0.0100    0.0100    0.0100
0.0100    0.0100    0.0100    0.0100    0.0100    0.0100    0.0100    0.0100
0.0100    0.0100    0.0100    0.0100    0.0100    0.0100    0.0100    0.0100
0.0100    0.0100    0.0100    0.0100    0.0100    0.0100    0.0100    0.0100
0.0100    0.0100    0.0100    0.0100    0.0100    0.0100    0.0100    0.0100
0.0100    0.0100    0.0100    0.0100    0.0100    0.0100    0.0100    0.0100
0.0100    0.0100    0.0100    0.0100    0.0100    0.0100    0.0100    0.0100
0.0100    0.0100    0.0100    0.0100    0.0100    0.0100    0.0100    0.0100
0.0100    0.0100    0.0100    0.0100    0.0100    0.0100    0.0100    0.0100
0.0100    0.0100    0.0100    0.0100    0.0100    0.0100    0.0100    0.0100
0.0100    0.0100    0.0100    0.0100    0.0100    0.0100    0.0100    0.0100
0.0100    0.0100    0.0100    0.0100    0.0100    0.0100    0.0100    0.0100
0.0100    0.0100    0.0100    0.0100    0.0100    0.0100    0.0100    0.0100
0.0100    0.0100    0.0100    0.0100    0.0100    0.0100    0.0100    0.0100
0.0100    0.0100    0.0100    0.0100    0.0100    0.0100    0.0100    0.0100
0.0100    0.0100    0.0100    0.0100    0.0100    0.0100    0.0100    0.0100
0.0100    0.0100    0.0100    0.0100    0.0100    0.0100    0.0100    0.0100
0.0100    0.0100    0.0100    0.0100    0.0100    0.0100    0.0100    0.0100
0.0100    0.0100    0.0100    0.0100    0.0100    0.0100    0.0100    0.0100
0.0100    0.0100    0.0100    0.0100    0.0100    0.0100    0.0100    0.0100
0.0100    0.0100    0.0100    0.0100    0.0100    0.0100    0.0100    0.0100
0.0100    0.0100    0.0100    0.0100    0.0100    0.0100    0.0100    0.0100
0.0100    0.0100    0.0100    0.0100    0.0100    0.0100    0.0100    0.0100
0.0100    0.0100    0.0100    0.0100    0.0100    0.0100    0.0100    0.0100
0.0100    0.0100    0.0100    0.0100    0.0100    0.0100    0.0100    0.0100
0.0100    0.0100    0.0100    0.0100    0.0100    0.0100    0.0100    0.0100
0.0100    0.0100    0.0100    0.0100    0.0100    0.0100    0.0100    0.0100
0.0100    0.0100    0.0100    0.0100    0.0100    0.0100    0.0100    0.0100
0.0100    0.0100    0.0100    0.0100    0.0100    0.0100    0.0100    0.0100
0.0100    0.0100    0.0100    0.0100    0.0100    0.0100    0.0100    0.0100
0.0100    0.0100    0.0100    0.0100    0.0100    0.0100    0.0100    0.0100
0.0100    0.0100    0.0100    0.0100    0.0100    0.0100    0.0100    0.0100
0.0100    0.0100    0.0100    0.0100    0.0100    0.0100    0.0100    0.0100
0.0100    0.0100    0.0100    0.0100    0.0100    0.0100    0.0100    0.0100
0.0100    0.0100    0.0100    0.0100    0.0100    0.0100    0.0100    0.0100
0.0100    0.0100    0.0100    0.0100    0.0100    0.0100    0.0100    0.0100
0.0100    0.0100    0.0100    0.0100    0.0100    0.0100    0.0100    0.0100
0.0100    0.0100    0.0100    0.0100    0.0100    0.0100    0.0100    0.0100
0.0100    0.0100    0.0100    0.0100    0.0100    0.0100    0.0100    0.0100
0.0100    0.0100    0.0100    0.0100    0.0100    0.0100    0.0100    0.0100
0.0100    0.0100    0.0100    0.0100    0.0100    0.0100    0.0100    0.0100
0.0100    0.0100    0.0100    0.0100    0.0100    0.0100    0.0100    0.0100
0.0100    0.0100    0.0100    0.0100    0.0100    0.0100    0.0100    0.0100
0.0100    0.0100    0.0100    0.0100    0.0100    0.0100    0.0100    0.0100
0.0100    0.0100    0.0100    0.0100    0.0100    0.0100    0.0100    0.0100
0.0100    0.0100    0.0100    0.0100    0.0100    0.0100    0.0100    0.0100
0.0100    0.0100    0.0100    0.0100    0.0100    0.0100    0.0100    0.0100
0.0100    0.0100    0.0100    0.0100    0.0100    0.0100    0.0100    0.0100
0.0100    0.0100    0.0100    0.0100    0.0100    0.0100    0.0100    0.0100
0.0100    0.0100    0.0100    0.0100    0.0100    0.0100    0.0100    0.0100
0.0100    0.0100    0.0100    0.0100    0.0100    0.0100    0.0100    0.0100
0.0100    0.0100    0.0100    0.0100    0.0100    0.0100    0.0100    0.0100
0.0100    0.0100    0.0100    0.0100    0.0100    0.0100    0.0100    0.0100
0.0100    0.0100    0.0100    0.0100    0.0100    0.0100    0.0100    0.0100
0.0100    0.0100    0.0100    0.0100    0.0100    0.0100    0.0100    0.0100
0.0100    0.0100    0.0100    0.0100    0.0100    0.0100    0.0100    0.0100
0.0100    0.0100    0.0100    0.0100    0.0100    0.0100    0.0100    0.0100
0.0100    0.0100    0.0100    0.0100    0.0100    0.0100    0.0100    0.0100
0.0100    0.0100    0.0100    0.0100    0.0100    0.0100    0.0100    0.0100
0.0100    0.0100    0.0100    0.0100    0.0100    0.0100    0.0100    0.0100
0.0100    0.0100    0.0100    0.0100    0.0100    0.0100    0.0100    0.0100
0.0100    0.0100    0.0100    0.0100    0.0100    0.0100    0.0100    0.0100
0.0100    0.0100    0.0100    0.0100    0.0100    0.0100    0.0100    0.0100
0.0100    0.0100    0.0100    0.0100    0.0100    0.0100    0.0100    0.0100
0.0100    0.0100    0.0100    0.0100    0.0100    0.0100    0.0100    0.0100
0.0100    0.0100    0.0100    0.0100    0.0100    0.0100    0.0100    0.0100
0.0100    0.0100    0.0100    0.0100    0.0100    0.0100    0.0100    0.0100
0.0100    0.0100    0.0100    0.0100    0.0100    0.0100    0.0100    0.0100
0.0100    0.0100    0.0100    0.0100    0.0100    0.0100    0.0100    0.0100
0.0100    0.0100    0.0100    0.0100    0.0100    0.0100    0.0100    0.0100
0.0100    0.0100    0.0100    0.0100    0.0100    0.0100    0.0100    0.0100
0.0100    0.0100    0.0100    0.0100    0.0100    0.0100    0.0100    0.0100
0.0100    0.0100    0.0100    0.0100    0.0100    0.0100    0.0100    0.0100
0.0100    0.0100    0.0100    0.0100    0.0100    0.0100    0.0100    0.0100
0.0100    0.0100    0.0100    0.0100    0.0100    0.0100    0.0100    0.0100
0.0100    0.0100    0.0100    0.0100    0.0100    0.0100    0.0100    0.0100
0.0100    0.0100    0.0100    0.0100    0.0100    0.0100    0.0100    0.0100
0.0100    0.0100    0.0100    0.0100    0.0100    0.0100    0.0100    0.0100
0.0100    0.0100    0.0100    0.0100    0.0100    0.0100    0.0100    0.0100
0.0100    0.0100    0.0100    0.0100    0.0100    0.0100    0.0100    0.0100
0.0100    0.0100    0.0100    0.0100    0.0100    0.0100    0.0100    0.0100
0.0100    0.0100    0.0100    0.0100    0.0100    0.0100    0.0100    0.0100
0.0100    0.0100    0.0100    0.0100    0.0100    0.0100    0.0100    0.0100
0.0100    0.0100    0.0100    0.0100    0.0100    0.0100    0.0100    0.0100
0.0100    0.0100    0.0100    0.0100    0.0100    0.0100    0.0100    0.0100
0.0100    0.0100    0.0100    0.0100    0.0100    0.0100    0.0100    0.0100
0.0100    0.0100    0.0100    0.0100    0.0100    0.0100    0.0100    0.0100
0.0100    0.0100    0.0100    0.0100    0.0100    0.0100    0.0100    0.0100
0.0100    0.0100    0.0100    0.0100    0.0100    0.0100    0.0100    0.0100
0.0100    0.0100    0.0100    0.0100    0.0100    0.0100    0.0100    0.0100
0.0100    0.0100    0.0100    0.0100    0.0100    0.0100    0.0100    0.0100
0.0100    0.0100    0.0100    0.0100    0.0100    0.0100    0.0100    0.0100
0.0100    0.0100    0.0100    0.0100    0.0100    0.0100    0.0100    0.0100
0.0100    0.0100    0.0100    0.0100    0.0100    0.0100    0.0100    0.0100
0.0100    0.0100    0.0100    0.0100    0.0100    0.0100    0.0100    0.0100
0.0100    0.0100    0.0100    0.0100    0.0100    0.0100    0.0100    0.0100
0.0100    0.0100    0.0100    0.0100    0.0100    0.0100    0.0100    0.0100
0.0100    0.0100    0.0100    0.0100    0.0100    0.0100    0.0100    0.0100
0.0100    0.0100    0.0100    0.0100    0.0100    0.0100    0.0100    0.0100
0.0100    0.0100    0.0100    0.0100    0.0100    0.0100    0.0100    0.0100
0.0100    0.0100    0.0100    0.0100    0.0100    0.0100    0.0100    0.0100
0.0100    0.0100    0.0100    0.0100    0.0100    0.0100    0.0100    0.0100
0.0100    0.0100    0.0100    0.0100    0.0100    0.0100    0.0100    0.0100
0.0100    0.0100    0.0100    0.0100    0.0100    0.0100    0.0100    0.0100
0.0100    0.0100
</PP_RAB>
</PP_MESH>
<PP_LOCAL type="real"  size=" 938" columns="4">
-2.1438859865E+01   -2.1438215032E+01   -2.1436280846E+01   -2.1433058269E+01
-2.1428548887E+01   -2.1422754902E+01   -2.1415679110E+01   -2.1407324873E+01
-2.1397696089E+01   -2.1386797157E+01   -2.1374632935E+01   -2.1361208696E+01
-2.1346530082E+01   -2.1330603052E+01   -2.1313433830E+01   -2.1295028850E+01
-2.1275394701E+01   -2.1254538074E+01   -2.1232465698E+01   -2.1209184293E+01
-2.1184700509E+01   -2.1159020875E+01   -2.1132151748E+01   -2.1104099260E+01
-2.1074869272E+01   -2.1044467332E+01   -2.1012898625E+01   -2.0980167944E+01
-2.0946279643E+01   -2.0911237610E+01   -2.0875045235E+01   -2.0837705383E+01
-2.0799220366E+01   -2.0759591928E+01   -2.0718821217E+01   -2.0676908779E+01
-2.0633854534E+01   -2.0589657774E+01   -2.0544317147E+01   -2.0497830654E+01
-2.0450195646E+01   -2.0401408817E+01   -2.0351466210E+01   -2.0300363214E+01
-2.0248094577E+01   -2.0194654402E+01   -2.0140036171E+01   -2.0084232746E+01
-2.0027236395E+01   -1.9969038808E+01   -1.9909631123E+01   -1.9849003956E+01
-1.9787147437E+01   -1.9724051248E+01   -1.9659704674E+01   -1.9594096661E+01
-1.9527215879E+01   -1.9459050804E+01   -1.9389589802E+01   -1.9318821241E+01
-1.9246733612E+01   -1.9173315670E+01   -1.9098556601E+01   -1.9022446210E+01
-1.8944975139E+01   -1.8866135114E+01   -1.8785919214E+01   -1.8704322183E+01
-1.8621340755E+01   -1.8536974008E+01   -1.8451223741E+01   -1.8364094846E+01
-1.8275595692E+01   -1.8185738478E+01   -1.8094539564E+01   -1.8002019752E+01
-1.7908204494E+01   -1.7813124024E+01   -1.7716813392E+01   -1.7619312388E+01
-1.7520665359E+01   -1.7420920905E+01   -1.7320131478E+01   -1.7218352880E+01
-1.7115643694E+01   -1.7012064656E+01   -1.6907678010E+01   -1.6802546859E+01
-1.6696734550E+01   -1.6590304109E+01   -1.6483317747E+01   -1.6375836456E+01
-1.6267919691E+01   -1.6159625152E+01   -1.6051008654E+01   -1.5942124078E+01
-1.5833023397E+01   -1.5723756753E+01   -1.5614372582E+01   -1.5504917766E+01
-1.5395437800E+01   -1.5285976965E+01   -1.5176578498E+01   -1.5067284747E+01
-1.4958137312E+01   -1.4849177168E+01   -1.4740444758E+01   -1.4631980074E+01
-1.4523822703E+01   -1.4416011863E+01   -1.4308586409E+01   -1.4201584829E+01
-1.4095045210E+01   -1.3989005202E+01   -1.3883501964E+01   -1.3778572096E+01
-1.3674251562E+01   -1.3570575616E+01   -1.3467578708E+01   -1.3365294395E+01
-1.3263755253E+01   -1.3162992781E+01   -1.3063037313E+01   -1.2963917930E+01
-1.2865662375E+01   -1.2768296979E+01   -1.2671846582E+01   -1.2576334470E+01
-1.2481782312E+01   -1.2388210110E+01   -1.2295636150E+01   -1.2204076963E+01
-1.2113547294E+01   -1.2024060070E+01   -1.1935626385E+01   -1.1848255482E+01
-1.1761954743E+01   -1.1676729684E+01   -1.1592583953E+01   -1.1509519329E+01
-1.1427535732E+01   -1.1346631226E+01   -1.1266802027E+01   -1.1188042514E+01
-1.1110345243E+01   -1.1033700953E+01   -1.0958098580E+01   -1.0883525272E+01
-1.0809966377E+01   -1.0737405532E+01   -1.0665824598E+01   -1.0595203508E+01
-1.0525520796E+01   -1.0456754214E+01   -1.0388881805E+01   -1.0321882866E+01
-1.0255739487E+01   -1.0190436810E+01   -1.0125962494E+01   -1.0062305253E+01
-9.9994516548E+00   -9.9373863460E+00   -9.8760928040E+00   -9.8155542434E+00
-9.7557556385E+00   -9.6966829327E+00   -9.6383222850E+00   -9.5806602766E+00
-9.5236835833E+00   -9.4673791942E+00   -9.4117346878E+00   -9.3567380334E+00
-9.3023774933E+00   -9.2486416800E+00   -9.1955195600E+00   -9.1430004279E+00
-9.0910738929E+00   -9.0397298687E+00   -8.9889585610E+00   -8.9387504547E+00
-8.8890963014E+00   -8.8399871066E+00   -8.7914141174E+00   -8.7433688098E+00
-8.6958428765E+00   -8.6488282154E+00   -8.6023169177E+00   -8.5563012569E+00
-8.5107736786E+00   -8.4657267896E+00   -8.4211533492E+00   -8.3770462596E+00
-8.3333985582E+00   -8.2902034094E+00   -8.2474540981E+00   -8.2051440229E+00
-8.1632666911E+00   -8.1218157131E+00   -8.0807847985E+00   -8.0401677523E+00
-7.9999584720E+00   -7.9601509447E+00   -7.9207392459E+00   -7.8817175373E+00
-7.8430800666E+00   -7.8048211664E+00   -7.7669352543E+00   -7.7294168330E+00
-7.6922604907E+00   -7.6554609018E+00   -7.6190128275E+00   -7.5829111168E+00
-7.5471507075E+00   -7.5117266267E+00   -7.4766339921E+00   -7.4418680126E+00
-7.4074239889E+00   -7.3732973140E+00   -7.3394834735E+00   -7.3059780455E+00
-7.2727767006E+00   -7.2398752015E+00   -7.2072694017E+00   -7.1749552452E+00
-7.1429287650E+00   -7.1111860814E+00   -7.0797234001E+00   -7.0485370107E+00
-7.0176232837E+00   -6.9869786688E+00   -6.9565996914E+00   -6.9264829505E+00
-6.8966251155E+00   -6.8670229232E+00   -6.8376731747E+00   -6.8085727326E+00
-6.7797185174E+00   -6.7511075050E+00   -6.7227367235E+00   -6.6946032505E+00
-6.6667042102E+00   -6.6390367711E+00   -6.6115981434E+00   -6.5843855772E+00
-6.5573963600E+00   -6.5306278155E+00   -6.5040773017E+00   -6.4777422099E+00
-6.4516199636E+00   -6.4257080175E+00   -6.4000038573E+00   -6.3745049987E+00
-6.3492089879E+00   -6.3241134009E+00   -6.2992158441E+00   -6.2745139543E+00
-6.2500053991E+00   -6.2256878772E+00   -6.2015591192E+00   -6.1776168877E+00
-6.1538589782E+00   -6.1302832191E+00   -6.1068874721E+00   -6.0836696343E+00
-6.0606276371E+00   -6.0377594503E+00   -6.0150630665E+00   -5.9925365118E+00
-5.9701778414E+00   -5.9479851754E+00   -5.9259566969E+00   -5.9040906085E+00
-5.8823851202E+00   -5.8608383819E+00   -5.8394485860E+00   -5.8182139594E+00
-5.7971327635E+00   -5.7762033278E+00   -5.7554240039E+00   -5.7347933557E+00
-5.7143100117E+00   -5.6939726343E+00   -5.6737798335E+00   -5.6537300963E+00
-5.6338219161E+00   -5.6140537654E+00   -5.5944240810E+00   -5.5749313123E+00
-5.5555739026E+00   -5.5363504044E+00   -5.5172594370E+00   -5.4982996468E+00
-5.4794697172E+00   -5.4607683082E+00   -5.4421941161E+00   -5.4237458546E+00
-5.4054222491E+00   -5.3872220394E+00   -5.3691439803E+00   -5.3511868414E+00
-5.3333494162E+00   -5.3156305117E+00   -5.2980289511E+00   -5.2805435728E+00
-5.2631732300E+00   -5.2459167912E+00   -5.2287731397E+00   -5.2117411733E+00
-5.1948198042E+00   -5.1780079586E+00   -5.1613045767E+00   -5.1447086123E+00
-5.1282190323E+00   -5.1118348173E+00   -5.0955549606E+00   -5.0793784682E+00
-5.0633043589E+00   -5.0473316639E+00   -5.0314594263E+00   -5.0156867015E+00
-5.0000125565E+00   -4.9844360701E+00   -4.9689563324E+00   -4.9535724449E+00
-4.9382835200E+00   -4.9230886813E+00   -4.9079870629E+00   -4.8929778096E+00
-4.8780600767E+00   -4.8632330295E+00   -4.8484958439E+00   -4.8338477052E+00
-4.8192878089E+00   -4.8048153601E+00   -4.7904295733E+00   -4.7761296725E+00
-4.7619148908E+00   -4.7477844706E+00   -4.7337376630E+00   -4.7197737283E+00
-4.7058919351E+00   -4.6920915608E+00   -4.6783718914E+00   -4.6647322208E+00
-4.6511718516E+00   -4.6376900941E+00   -4.6242862667E+00   -4.6109596957E+00
-4.5977097152E+00   -4.5845356668E+00   -4.5714368996E+00   -4.5584127703E+00
-4.5454626427E+00   -4.5325858880E+00   -4.5197818844E+00   -4.5070500171E+00
-4.4943896782E+00   -4.4818002667E+00   -4.4692811881E+00   -4.4568318549E+00
-4.4444516857E+00   -4.4321401059E+00   -4.4198965470E+00   -4.4077204468E+00
-4.3956112495E+00   -4.3835684051E+00   -4.3715913698E+00   -4.3596796056E+00
-4.3478325804E+00   -4.3360497679E+00   -4.3243306475E+00   -4.3126747041E+00
-4.3010814283E+00   -4.2895503160E+00   -4.2780808686E+00   -4.2666725928E+00
-4.2553250005E+00   -4.2440376088E+00   -4.2328099400E+00   -4.2216415212E+00
-4.2105318848E+00   -4.1994805679E+00   -4.1884871124E+00   -4.1775510651E+00
-4.1666719777E+00   -4.1558494060E+00   -4.1450829111E+00   -4.1343720581E+00
-4.1237164167E+00   -4.1131155613E+00   -4.1025690704E+00   -4.0920765268E+00
-4.0816375177E+00   -4.0712516344E+00   -4.0609184723E+00   -4.0506376312E+00
-4.0404087145E+00   -4.0302313299E+00   -4.0201050890E+00   -4.0100296071E+00
-4.0000045037E+00   -3.9900294018E+00   -3.9801039282E+00   -3.9702277135E+00
-3.9604003918E+00   -3.9506216011E+00   -3.9408909827E+00   -3.9312081814E+00
-3.9215728458E+00   -3.9119846275E+00   -3.9024431819E+00   -3.8929481676E+00
-3.8834992463E+00   -3.8740960833E+00   -3.8647383470E+00   -3.8554257090E+00
-3.8461578441E+00   -3.8369344301E+00   -3.8277551479E+00   -3.8186196816E+00
-3.8095277183E+00   -3.8004789478E+00   -3.7914730632E+00   -3.7825097602E+00
-3.7735887375E+00   -3.7647096968E+00   -3.7558723422E+00   -3.7470763810E+00
-3.7383215230E+00   -3.7296074807E+00   -3.7209339693E+00   -3.7123007068E+00
-3.7037074135E+00   -3.6951538127E+00   -3.6866396298E+00   -3.6781645930E+00
-3.6697284329E+00   -3.6613308827E+00   -3.6529716779E+00   -3.6446505564E+00
-3.6363672586E+00   -3.6281215271E+00   -3.6199131069E+00   -3.6117417454E+00
-3.6036071922E+00   -3.5955091990E+00   -3.5874475200E+00   -3.5794219114E+00
-3.5714321318E+00   -3.5634779415E+00   -3.5555591035E+00   -3.5476753825E+00
-3.5398265455E+00   -3.5320123613E+00   -3.5242326011E+00   -3.5164870378E+00
-3.5087754464E+00   -3.5010976039E+00   -3.4934532893E+00   -3.4858422834E+00
-3.4782643690E+00   -3.4707193307E+00   -3.4632069549E+00   -3.4557270302E+00
-3.4482793466E+00   -3.4408636961E+00   -3.4334798725E+00   -3.4261276714E+00
-3.4188068900E+00   -3.4115173273E+00   -3.4042587840E+00   -3.3970310627E+00
-3.3898339673E+00   -3.3826673036E+00   -3.3755308790E+00   -3.3684245026E+00
-3.3613479848E+00   -3.3543011380E+00   -3.3472837759E+00   -3.3402957138E+00
-3.3333367687E+00   -3.3264067588E+00   -3.3195055041E+00   -3.3126328260E+00
-3.3057885473E+00   -3.2989724925E+00   -3.2921844871E+00   -3.2854243586E+00
-3.2786919354E+00   -3.2719870476E+00   -3.2653095267E+00   -3.2586592054E+00
-3.2520359178E+00   -3.2454394994E+00   -3.2388697871E+00   -3.2323266190E+00