<UPF version="2.0.1">
<PP_INFO>

This pseudopotential file has been produced using the code
ONCVPSP  (Optimized Norm-Conservinng Vanderbilt PSeudopotential)
scalar-relativistic version 3.2.3 08/16/2016 by D. R. Hamann
The code is available through a link at URL www.mat-simresearch.com.
Documentation with the package provides a full discription of the
input data below.


While it is not required under the terms of the GNU GPL, it is
suggested that you cite D. R. Hamann, Phys. Rev. B 88, 085117 (2013)
in any publication using these pseudopotentials.

<PP_INPUTFILE>
# ATOM AND REFERENCE CONFIGURATION
# atsym  z   nc   nv     iexc    psfile
Kr 36.00    6    2 -116133      upf
#
#   n    l    f        energy (Ha)
1    0    2.00
2    0    2.00
2    1    6.00
3    0    2.00
3    1    6.00
3    2   10.00
4    0    2.00
4    1    6.00
#
# PSEUDOPOTENTIAL AND OPTIMIZATION
# lmax
2
#
#   l,   rc,      ep,       ncon, nbas, qcut
0   1.75000  -0.84680    4    8   6.10000
1   1.50000  -0.33955    4    7   7.00000
2   1.80000   0.10000    4    7   7.60000
#
# LOCAL POTENTIAL
# lloc, lpopt,  rc(5),   dvloc0
4    5   1.50000      0.00000
#
# VANDERBILT-KLEINMAN-BYLANDER PROJECTORs
# l, nproj, debl
0    2   3.00000
1    2   3.00000
2    2   4.00000
#
# MODEL CORE CHARGE
# icmod, fcfact, rcfact
3   7.00000   1.24000
#
# LOG DERIVATIVE ANALYSIS
# epsh1, epsh2, depsh
-12.00   12.00    0.02
#
# OUTPUT GRID
# rlmax, drl
6.00    0.01
#
# TEST CONFIGURATIONS
# ncnf
0
# nvcnf
#   n    l    f
</PP_INPUTFILE>
</PP_INFO>
<!--                               -->
<!-- END OF HUMAN READABLE SECTION -->
<!--                               -->
<PP_HEADER
generated="Generated using ONCVPSP code by D. R. Hamann"
author="anonymous"
date="170120"
comment=""
element="Kr"
pseudo_type="NC"
relativistic="scalar"
is_ultrasoft="F"
is_paw="F"
is_coulomb="F"
has_so="F"
has_wfc="F"
has_gipaw="F"
core_correction="T"
functional="PBESOL"
z_valence="    8.00"
total_psenergy="  -3.70884892250E+01"
rho_cutoff="   1.00500000000E+01"
l_max="2"
l_local="-1"
mesh_size="  1006"
number_of_wfc="2"
number_of_proj="6"/>
<PP_MESH>
<PP_R type="real"  size="1006" columns="8">
0.0000    0.0100    0.0200    0.0300    0.0400    0.0500    0.0600    0.0700
0.0800    0.0900    0.1000    0.1100    0.1200    0.1300    0.1400    0.1500
0.1600    0.1700    0.1800    0.1900    0.2000    0.2100    0.2200    0.2300
0.2400    0.2500    0.2600    0.2700    0.2800    0.2900    0.3000    0.3100
0.3200    0.3300    0.3400    0.3500    0.3600    0.3700    0.3800    0.3900
0.4000    0.4100    0.4200    0.4300    0.4400    0.4500    0.4600    0.4700
0.4800    0.4900    0.5000    0.5100    0.5200    0.5300    0.5400    0.5500
0.5600    0.5700    0.5800    0.5900    0.6000    0.6100    0.6200    0.6300
0.6400    0.6500    0.6600    0.6700    0.6800    0.6900    0.7000    0.7100
0.7200    0.7300    0.7400    0.7500    0.7600    0.7700    0.7800    0.7900
0.8000    0.8100    0.8200    0.8300    0.8400    0.8500    0.8600    0.8700
0.8800    0.8900    0.9000    0.9100    0.9200    0.9300    0.9400    0.9500
0.9600    0.9700    0.9800    0.9900    1.0000    1.0100    1.0200    1.0300
1.0400    1.0500    1.0600    1.0700    1.0800    1.0900    1.1000    1.1100
1.1200    1.1300    1.1400    1.1500    1.1600    1.1700    1.1800    1.1900
1.2000    1.2100    1.2200    1.2300    1.2400    1.2500    1.2600    1.2700
1.2800    1.2900    1.3000    1.3100    1.3200    1.3300    1.3400    1.3500
1.3600    1.3700    1.3800    1.3900    1.4000    1.4100    1.4200    1.4300
1.4400    1.4500    1.4600    1.4700    1.4800    1.4900    1.5000    1.5100
1.5200    1.5300    1.5400    1.5500    1.5600    1.5700    1.5800    1.5900
1.6000    1.6100    1.6200    1.6300    1.6400    1.6500    1.6600    1.6700
1.6800    1.6900    1.7000    1.7100    1.7200    1.7300    1.7400    1.7500
1.7600    1.7700    1.7800    1.7900    1.8000    1.8100    1.8200    1.8300
1.8400    1.8500    1.8600    1.8700    1.8800    1.8900    1.9000    1.9100
1.9200    1.9300    1.9400    1.9500    1.9600    1.9700    1.9800    1.9900
2.0000    2.0100    2.0200    2.0300    2.0400    2.0500    2.0600    2.0700
2.0800    2.0900    2.1000    2.1100    2.1200    2.1300    2.1400    2.1500
2.1600    2.1700    2.1800    2.1900    2.2000    2.2100    2.2200    2.2300
2.2400    2.2500    2.2600    2.2700    2.2800    2.2900    2.3000    2.3100
2.3200    2.3300    2.3400    2.3500    2.3600    2.3700    2.3800    2.3900
2.4000    2.4100    2.4200    2.4300    2.4400    2.4500    2.4600    2.4700
2.4800    2.4900    2.5000    2.5100    2.5200    2.5300    2.5400    2.5500
2.5600    2.5700    2.5800    2.5900    2.6000    2.6100    2.6200    2.6300
2.6400    2.6500    2.6600    2.6700    2.6800    2.6900    2.7000    2.7100
2.7200    2.7300    2.7400    2.7500    2.7600    2.7700    2.7800    2.7900
2.8000    2.8100    2.8200    2.8300    2.8400    2.8500    2.8600    2.8700
2.8800    2.8900    2.9000    2.9100    2.9200    2.9300    2.9400    2.9500
2.9600    2.9700    2.9800    2.9900    3.0000    3.0100    3.0200    3.0300
3.0400    3.0500    3.0600    3.0700    3.0800    3.0900    3.1000    3.1100
3.1200    3.1300    3.1400    3.1500    3.1600    3.1700    3.1800    3.1900
3.2000    3.2100    3.2200    3.2300    3.2400    3.2500    3.2600    3.2700
3.2800    3.2900    3.3000    3.3100    3.3200    3.3300    3.3400    3.3500
3.3600    3.3700    3.3800    3.3900    3.4000    3.4100    3.4200    3.4300
3.4400    3.4500    3.4600    3.4700    3.4800    3.4900    3.5000    3.5100
3.5200    3.5300    3.5400    3.5500    3.5600    3.5700    3.5800    3.5900
3.6000    3.6100    3.6200    3.6300    3.6400    3.6500    3.6600    3.6700
3.6800    3.6900    3.7000    3.7100    3.7200    3.7300    3.7400    3.7500
3.7600    3.7700    3.7800    3.7900    3.8000    3.8100    3.8200    3.8300
3.8400    3.8500    3.8600    3.8700    3.8800    3.8900    3.9000    3.9100
3.9200    3.9300    3.9400    3.9500    3.9600    3.9700    3.9800    3.9900
4.0000    4.0100    4.0200    4.0300    4.0400    4.0500    4.0600    4.0700
4.0800    4.0900    4.1000    4.1100    4.1200    4.1300    4.1400    4.1500
4.1600    4.1700    4.1800    4.1900    4.2000    4.2100    4.2200    4.2300
4.2400    4.2500    4.2600    4.2700    4.2800    4.2900    4.3000    4.3100
4.3200    4.3300    4.3400    4.3500    4.3600    4.3700    4.3800    4.3900
4.4000    4.4100    4.4200    4.4300    4.4400    4.4500    4.4600    4.4700
4.4800    4.4900    4.5000    4.5100    4.5200    4.5300    4.5400    4.5500
4.5600    4.5700    4.5800    4.5900    4.6000    4.6100    4.6200    4.6300
4.6400    4.6500    4.6600    4.6700    4.6800    4.6900    4.7000    4.7100
4.7200    4.7300    4.7400    4.7500    4.7600    4.7700    4.7800    4.7900
4.8000    4.8100    4.8200    4.8300    4.8400    4.8500    4.8600    4.8700
4.8800    4.8900    4.9000    4.9100    4.9200    4.9300    4.9400    4.9500
4.9600    4.9700    4.9800    4.9900    5.0000    5.0100    5.0200    5.0300
5.0400    5.0500    5.0600    5.0700    5.0800    5.0900    5.1000    5.1100
5.1200    5.1300    5.1400    5.1500    5.1600    5.1700    5.1800    5.1900
5.2000    5.2100    5.2200    5.2300    5.2400    5.2500    5.2600    5.2700
5.2800    5.2900    5.3000    5.3100    5.3200    5.3300    5.3400    5.3500
5.3600    5.3700    5.3800    5.3900    5.4000    5.4100    5.4200    5.4300
5.4400    5.4500    5.4600    5.4700    5.4800    5.4900    5.5000    5.5100
5.5200    5.5300    5.5400    5.5500    5.5600    5.5700    5.5800    5.5900
5.6000    5.6100    5.6200    5.6300    5.6400    5.6500    5.6600    5.6700
5.6800    5.6900    5.7000    5.7100    5.7200    5.7300    5.7400    5.7500
5.7600    5.7700    5.7800    5.7900    5.8000    5.8100    5.8200    5.8300
5.8400    5.8500    5.8600    5.8700    5.8800    5.8900    5.9000    5.9100
5.9200    5.9300    5.9400    5.9500    5.9600    5.9700    5.9800    5.9900
6.0000    6.0100    6.0200    6.0300    6.0400    6.0500    6.0600    6.0700
6.0800    6.0900    6.1000    6.1100    6.1200    6.1300    6.1400    6.1500
6.1600    6.1700    6.1800    6.1900    6.2000    6.2100    6.2200    6.2300
6.2400    6.2500    6.2600    6.2700    6.2800    6.2900    6.3000    6.3100
6.3200    6.3300    6.3400    6.3500    6.3600    6.3700    6.3800    6.3900
6.4000    6.4100    6.4200    6.4300    6.4400    6.4500    6.4600    6.4700
6.4800    6.4900    6.5000    6.5100    6.5200    6.5300    6.5400    6.5500
6.5600    6.5700    6.5800    6.5900    6.6000    6.6100    6.6200    6.6300
6.6400    6.6500    6.6600    6.6700    6.6800    6.6900    6.7000    6.7100
6.7200    6.7300    6.7400    6.7500    6.7600    6.7700    6.7800    6.7900
6.8000    6.8100    6.8200    6.8300    6.8400    6.8500    6.8600    6.8700
6.8800    6.8900    6.9000    6.9100    6.9200    6.9300    6.9400    6.9500
6.9600    6.9700    6.9800    6.9900    7.0000    7.0100    7.0200    7.0300
7.0400    7.0500    7.0600    7.0700    7.0800    7.0900    7.1000    7.1100
7.1200    7.1300    7.1400    7.1500    7.1600    7.1700    7.1800    7.1900
7.2000    7.2100    7.2200    7.2300    7.2400    7.2500    7.2600    7.2700
7.2800    7.2900    7.3000    7.3100    7.3200    7.3300    7.3400    7.3500
7.3600    7.3700    7.3800    7.3900    7.4000    7.4100    7.4200    7.4300
7.4400    7.4500    7.4600    7.4700    7.4800    7.4900    7.5000    7.5100
7.5200    7.5300    7.5400    7.5500    7.5600    7.5700    7.5800    7.5900
7.6000    7.6100    7.6200    7.6300    7.6400    7.6500    7.6600    7.6700
7.6800    7.6900    7.7000    7.7100    7.7200    7.7300    7.7400    7.7500
7.7600    7.7700    7.7800    7.7900    7.8000    7.8100    7.8200    7.8300
7.8400    7.8500    7.8600    7.8700    7.8800    7.8900    7.9000    7.9100
7.9200    7.9300    7.9400    7.9500    7.9600    7.9700    7.9800    7.9900
8.0000    8.0100    8.0200    8.0300    8.0400    8.0500    8.0600    8.0700
8.0800    8.0900    8.1000    8.1100    8.1200    8.1300    8.1400    8.1500
8.1600    8.1700    8.1800    8.1900    8.2000    8.2100    8.2200    8.2300
8.2400    8.2500    8.2600    8.2700    8.2800    8.2900    8.3000    8.3100
8.3200    8.3300    8.3400    8.3500    8.3600    8.3700    8.3800    8.3900
8.4000    8.4100    8.4200    8.4300    8.4400    8.4500    8.4600    8.4700
8.4800    8.4900    8.5000    8.5100    8.5200    8.5300    8.5400    8.5500
8.5600    8.5700    8.5800    8.5900    8.6000    8.6100    8.6200    8.6300
8.6400    8.6500    8.6600    8.6700    8.6800    8.6900    8.7000    8.7100
8.7200    8.7300    8.7400    8.7500    8.7600    8.7700    8.7800    8.7900
8.8000    8.8100    8.8200    8.8300    8.8400    8.8500    8.8600    8.8700
8.8800    8.8900    8.9000    8.9100    8.9200    8.9300    8.9400    8.9500
8.9600    8.9700    8.9800    8.9900    9.0000    9.0100    9.0200    9.0300
9.0400    9.0500    9.0600    9.0700    9.0800    9.0900    9.1000    9.1100
9.1200    9.1300    9.1400    9.1500    9.1600    9.1700    9.1800    9.1900
9.2000    9.2100    9.2200    9.2300    9.2400    9.2500    9.2600    9.2700
9.2800    9.2900    9.3000    9.3100    9.3200    9.3300    9.3400    9.3500
9.3600    9.3700    9.3800    9.3900    9.4000    9.4100    9.4200    9.4300
9.4400    9.4500    9.4600    9.4700    9.4800    9.4900    9.5000    9.5100
9.5200    9.5300    9.5400    9.5500    9.5600    9.5700    9.5800    9.5900
9.6000    9.6100    9.6200    9.6300    9.6400    9.6500    9.6600    9.6700
9.6800    9.6900    9.7000    9.7100    9.7200    9.7300    9.7400    9.7500
9.7600    9.7700    9.7800    9.7900    9.8000    9.8100    9.8200    9.8300
9.8400    9.8500    9.8600    9.8700    9.8800    9.8900    9.9000    9.9100
9.9200    9.9300    9.9400    9.9500    9.9600    9.9700    9.9800    9.9900
10.0000   10.0100   10.0200   10.0300   10.0400   10.0500
</PP_R>
<PP_RAB type="real"  size="1006" columns="8">
0.0100    0.0100    0.0100    0.0100    0.0100    0.0100    0.0100    0.0100
0.0100    0.0100    0.0100    0.0100    0.0100    0.0100    0.0100    0.0100
0.0100    0.0100    0.0100    0.0100    0.0100    0.0100    0.0100    0.0100
0.0100    0.0100    0.0100    0.0100    0.0100    0.0100    0.0100    0.0100
0.0100    0.0100    0.0100    0.0100    0.0100    0.0100    0.0100    0.0100
0.0100    0.0100    0.0100    0.0100    0.0100    0.0100    0.0100    0.0100
0.0100    0.0100    0.0100    0.0100    0.0100    0.0100    0.0100    0.0100
0.0100    0.0100    0.0100    0.0100    0.0100    0.0100    0.0100    0.0100
0.0100    0.0100    0.0100    0.0100    0.0100    0.0100    0.0100    0.0100
0.0100    0.0100    0.0100    0.0100    0.0100    0.0100    0.0100    0.0100
0.0100    0.0100    0.0100    0.0100    0.0100    0.0100    0.0100    0.0100
0.0100    0.0100    0.0100    0.0100    0.0100    0.0100    0.0100    0.0100
0.0100    0.0100    0.0100    0.0100    0.0100    0.0100    0.0100    0.0100
0.0100    0.0100    0.0100    0.0100    0.0100    0.0100    0.0100    0.0100
0.0100    0.0100    0.0100    0.0100    0.0100    0.0100    0.0100    0.0100
0.0100    0.0100    0.0100    0.0100    0.0100    0.0100    0.0100    0.0100
0.0100    0.0100    0.0100    0.0100    0.0100    0.0100    0.0100    0.0100
0.0100    0.0100    0.0100    0.0100    0.0100    0.0100    0.0100    0.0100
0.0100    0.0100    0.0100    0.0100    0.0100    0.0100    0.0100    0.0100
0.0100    0.0100    0.0100    0.0100    0.0100    0.0100    0.0100    0.0100
0.0100    0.0100    0.0100    0.0100    0.0100    0.0100    0.0100    0.0100
0.0100    0.0100    0.0100    0.0100    0.0100    0.0100    0.0100    0.0100
0.0100    0.0100    0.0100    0.0100    0.0100    0.0100    0.0100    0.0100
0.0100    0.0100    0.0100    0.0100    0.0100    0.0100    0.0100    0.0100
0.0100    0.0100    0.0100    0.0100    0.0100    0.0100    0.0100    0.0100
0.0100    0.0100    0.0100    0.0100    0.0100    0.0100    0.0100    0.0100
0.0100    0.0100    0.0100    0.0100    0.0100    0.0100    0.0100    0.0100
0.0100    0.0100    0.0100    0.0100    0.0100    0.0100    0.0100    0.0100
0.0100    0.0100    0.0100    0.0100    0.0100    0.0100    0.0100    0.0100
0.0100    0.0100    0.0100    0.0100    0.0100    0.0100    0.0100    0.0100
0.0100    0.0100    0.0100    0.0100    0.0100    0.0100    0.0100    0.0100
0.0100    0.0100    0.0100    0.0100    0.0100    0.0100    0.0100    0.0100
0.0100    0.0100    0.0100    0.0100    0.0100    0.0100    0.0100    0.0100
0.0100    0.0100    0.0100    0.0100    0.0100    0.0100    0.0100    0.0100
0.0100    0.0100    0.0100    0.0100    0.0100    0.0100    0.0100    0.0100
0.0100    0.0100    0.0100    0.0100    0.0100    0.0100    0.0100    0.0100
0.0100    0.0100    0.0100    0.0100    0.0100    0.0100    0.0100    0.0100
0.0100    0.0100    0.0100    0.0100    0.0100    0.0100    0.0100    0.0100
0.0100    0.0100    0.0100    0.0100    0.0100    0.0100    0.0100    0.0100
0.0100    0.0100    0.0100    0.0100    0.0100    0.0100    0.0100    0.0100
0.0100    0.0100    0.0100    0.0100    0.0100    0.0100    0.0100    0.0100
0.0100    0.0100    0.0100    0.0100    0.0100    0.0100    0.0100    0.0100
0.0100    0.0100    0.0100    0.0100    0.0100    0.0100    0.0100    0.0100
0.0100    0.0100    0.0100    0.0100    0.0100    0.0100    0.0100    0.0100
0.0100    0.0100    0.0100    0.0100    0.0100    0.0100    0.0100    0.0100
0.0100    0.0100    0.0100    0.0100    0.0100    0.0100    0.0100    0.0100
0.0100    0.0100    0.0100    0.0100    0.0100    0.0100    0.0100    0.0100
0.0100    0.0100    0.0100    0.0100    0.0100    0.0100    0.0100    0.0100
0.0100    0.0100    0.0100    0.0100    0.0100    0.0100    0.0100    0.0100
0.0100    0.0100    0.0100    0.0100    0.0100    0.0100    0.0100    0.0100
0.0100    0.0100    0.0100    0.0100    0.0100    0.0100    0.0100    0.0100
0.0100    0.0100    0.0100    0.0100    0.0100    0.0100    0.0100    0.0100
0.0100    0.0100    0.0100    0.0100    0.0100    0.0100    0.0100    0.0100
0.0100    0.0100    0.0100    0.0100    0.0100    0.0100    0.0100    0.0100
0.0100    0.0100    0.0100    0.0100    0.0100    0.0100    0.0100    0.0100
0.0100    0.0100    0.0100    0.0100    0.0100    0.0100    0.0100    0.0100
0.0100    0.0100    0.0100    0.0100    0.0100    0.0100    0.0100    0.0100
0.0100    0.0100    0.0100    0.0100    0.0100    0.0100    0.0100    0.0100
0.0100    0.0100    0.0100    0.0100    0.0100    0.0100    0.0100    0.0100
0.0100    0.0100    0.0100    0.0100    0.0100    0.0100    0.0100    0.0100
0.0100    0.0100    0.0100    0.0100    0.0100    0.0100    0.0100    0.0100
0.0100    0.0100    0.0100    0.0100    0.0100    0.0100    0.0100    0.0100
0.0100    0.0100    0.0100    0.0100    0.0100    0.0100    0.0100    0.0100
0.0100    0.0100    0.0100    0.0100    0.0100    0.0100    0.0100    0.0100
0.0100    0.0100    0.0100    0.0100    0.0100    0.0100    0.0100    0.0100
0.0100    0.0100    0.0100    0.0100    0.0100    0.0100    0.0100    0.0100
0.0100    0.0100    0.0100    0.0100    0.0100    0.0100    0.0100    0.0100
0.0100    0.0100    0.0100    0.0100    0.0100    0.0100    0.0100    0.0100
0.0100    0.0100    0.0100    0.0100    0.0100    0.0100    0.0100    0.0100
0.0100    0.0100    0.0100    0.0100    0.0100    0.0100    0.0100    0.0100
0.0100    0.0100    0.0100    0.0100    0.0100    0.0100    0.0100    0.0100
0.0100    0.0100    0.0100    0.0100    0.0100    0.0100    0.0100    0.0100
0.0100    0.0100    0.0100    0.0100    0.0100    0.0100    0.0100    0.0100
0.0100    0.0100    0.0100    0.0100    0.0100    0.0100    0.0100    0.0100
0.0100    0.0100    0.0100    0.0100    0.0100    0.0100    0.0100    0.0100
0.0100    0.0100    0.0100    0.0100    0.0100    0.0100    0.0100    0.0100
0.0100    0.0100    0.0100    0.0100    0.0100    0.0100    0.0100    0.0100
0.0100    0.0100    0.0100    0.0100    0.0100    0.0100    0.0100    0.0100
0.0100    0.0100    0.0100    0.0100    0.0100    0.0100    0.0100    0.0100
0.0100    0.0100    0.0100    0.0100    0.0100    0.0100    0.0100    0.0100
0.0100    0.0100    0.0100    0.0100    0.0100    0.0100    0.0100    0.0100
0.0100    0.0100    0.0100    0.0100    0.0100    0.0100    0.0100    0.0100
0.0100    0.0100    0.0100    0.0100    0.0100    0.0100    0.0100    0.0100
0.0100    0.0100    0.0100    0.0100    0.0100    0.0100    0.0100    0.0100
0.0100    0.0100    0.0100    0.0100    0.0100    0.0100    0.0100    0.0100
0.0100    0.0100    0.0100    0.0100    0.0100    0.0100    0.0100    0.0100
0.0100    0.0100    0.0100    0.0100    0.0100    0.0100    0.0100    0.0100
0.0100    0.0100    0.0100    0.0100    0.0100    0.0100    0.0100    0.0100
0.0100    0.0100    0.0100    0.0100    0.0100    0.0100    0.0100    0.0100
0.0100    0.0100    0.0100    0.0100    0.0100    0.0100    0.0100    0.0100
0.0100    0.0100    0.0100    0.0100    0.0100    0.0100    0.0100    0.0100
0.0100    0.0100    0.0100    0.0100    0.0100    0.0100    0.0100    0.0100
0.0100    0.0100    0.0100    0.0100    0.0100    0.0100    0.0100    0.0100
0.0100    0.0100    0.0100    0.0100    0.0100    0.0100    0.0100    0.0100
0.0100    0.0100    0.0100    0.0100    0.0100    0.0100    0.0100    0.0100
0.0100    0.0100    0.0100    0.0100    0.0100    0.0100    0.0100    0.0100
0.0100    0.0100    0.0100    0.0100    0.0100    0.0100    0.0100    0.0100
0.0100    0.0100    0.0100    0.0100    0.0100    0.0100    0.0100    0.0100
0.0100    0.0100    0.0100    0.0100    0.0100    0.0100    0.0100    0.0100
0.0100    0.0100    0.0100    0.0100    0.0100    0.0100    0.0100    0.0100
0.0100    0.0100    0.0100    0.0100    0.0100    0.0100    0.0100    0.0100
0.0100    0.0100    0.0100    0.0100    0.0100    0.0100    0.0100    0.0100
0.0100    0.0100    0.0100    0.0100    0.0100    0.0100    0.0100    0.0100
0.0100    0.0100    0.0100    0.0100    0.0100    0.0100    0.0100    0.0100
0.0100    0.0100    0.0100    0.0100    0.0100    0.0100    0.0100    0.0100
0.0100    0.0100    0.0100    0.0100    0.0100    0.0100    0.0100    0.0100
0.0100    0.0100    0.0100    0.0100    0.0100    0.0100    0.0100    0.0100
0.0100    0.0100    0.0100    0.0100    0.0100    0.0100    0.0100    0.0100
0.0100    0.0100    0.0100    0.0100    0.0100    0.0100    0.0100    0.0100
0.0100    0.0100    0.0100    0.0100    0.0100    0.0100    0.0100    0.0100
0.0100    0.0100    0.0100    0.0100    0.0100    0.0100    0.0100    0.0100
0.0100    0.0100    0.0100    0.0100    0.0100    0.0100    0.0100    0.0100
0.0100    0.0100    0.0100    0.0100    0.0100    0.0100    0.0100    0.0100
0.0100    0.0100    0.0100    0.0100    0.0100    0.0100    0.0100    0.0100
0.0100    0.0100    0.0100    0.0100    0.0100    0.0100    0.0100    0.0100
0.0100    0.0100    0.0100    0.0100    0.0100    0.0100    0.0100    0.0100
0.0100    0.0100    0.0100    0.0100    0.0100    0.0100    0.0100    0.0100
0.0100    0.0100    0.0100    0.0100    0.0100    0.0100    0.0100    0.0100
0.0100    0.0100    0.0100    0.0100    0.0100    0.0100    0.0100    0.0100
0.0100    0.0100    0.0100    0.0100    0.0100    0.0100    0.0100    0.0100
0.0100    0.0100    0.0100    0.0100    0.0100    0.0100    0.0100    0.0100
0.0100    0.0100    0.0100    0.0100    0.0100    0.0100    0.0100    0.0100
0.0100    0.0100    0.0100    0.0100    0.0100    0.0100    0.0100    0.0100
0.0100    0.0100    0.0100    0.0100    0.0100    0.0100    0.0100    0.0100
0.0100    0.0100    0.0100    0.0100    0.0100    0.0100    0.0100    0.0100
0.0100    0.0100    0.0100    0.0100    0.0100    0.0100
</PP_RAB>
</PP_MESH>
<PP_LOCAL type="real"  size="1006" columns="4">
-2.2607448486E+01   -2.2606528771E+01   -2.2603769920E+01   -2.2599172832E+01
-2.2592739004E+01   -2.2584470531E+01   -2.2574370099E+01   -2.2562440990E+01
-2.2548687076E+01   -2.2533112812E+01   -2.2515723239E+01   -2.2496523975E+01
-2.2475521210E+01   -2.2452721701E+01   -2.2428132768E+01   -2.2401762286E+01
-2.2373618674E+01   -2.2343710895E+01   -2.2312048441E+01   -2.2278641327E+01
-2.2243500084E+01   -2.2206635744E+01   -2.2168059834E+01   -2.2127784365E+01
-2.2085821821E+01   -2.2042185145E+01   -2.1996887734E+01   -2.1949943418E+01
-2.1901366458E+01   -2.1851171525E+01   -2.1799373695E+01   -2.1745988430E+01
-2.1691031574E+01   -2.1634519331E+01   -2.1576468260E+01   -2.1516895260E+01
-2.1455817561E+01   -2.1393252708E+01   -2.1329218552E+01   -2.1263733240E+01
-2.1196815205E+01   -2.1128483152E+01   -2.1058756052E+01   -2.0987653132E+01
-2.0915193867E+01   -2.0841397970E+01   -2.0766285386E+01   -2.0689876287E+01
-2.0612191061E+01   -2.0533250312E+01   -2.0453074851E+01   -2.0371685694E+01
-2.0289104058E+01   -2.0205351359E+01   -2.0120449207E+01   -2.0034419409E+01
-1.9947283964E+01   -1.9859065067E+01   -1.9769785107E+01   -1.9679466669E+01
-1.9588132537E+01   -1.9495805698E+01   -1.9402509341E+01   -1.9308266867E+01
-1.9213101890E+01   -1.9117038245E+01   -1.9020099993E+01   -1.8922311427E+01
-1.8823697083E+01   -1.8724281744E+01   -1.8624090450E+01   -1.8523148510E+01
-1.8421481504E+01   -1.8319115301E+01   -1.8216076062E+01   -1.8112390252E+01
-1.8008084651E+01   -1.7903186364E+01   -1.7797722823E+01   -1.7691721806E+01
-1.7585211437E+01   -1.7478220195E+01   -1.7370776920E+01   -1.7262910818E+01
-1.7154651463E+01   -1.7046028798E+01   -1.6937073136E+01   -1.6827815154E+01
-1.6718285893E+01   -1.6608516746E+01   -1.6498539449E+01   -1.6388386071E+01
-1.6278088996E+01   -1.6167680908E+01   -1.6057194767E+01   -1.5946663788E+01
-1.5836121414E+01   -1.5725601286E+01   -1.5615137214E+01   -1.5504763144E+01
-1.5394513118E+01   -1.5284421240E+01   -1.5174521636E+01   -1.5064848409E+01
-1.4955435603E+01   -1.4846317151E+01   -1.4737526837E+01   -1.4629098247E+01
-1.4521064720E+01   -1.4413459306E+01   -1.4306314716E+01   -1.4199663275E+01
-1.4093536872E+01   -1.3987966915E+01   -1.3882984283E+01   -1.3778619277E+01
-1.3674901574E+01   -1.3571860176E+01   -1.3469523369E+01   -1.3367918669E+01
-1.3267072783E+01   -1.3167011554E+01   -1.3067759922E+01   -1.2969341875E+01
-1.2871780405E+01   -1.2775097459E+01   -1.2679313903E+01   -1.2584449467E+01
-1.2490522713E+01   -1.2397550984E+01   -1.2305550365E+01   -1.2214535642E+01
-1.2124520264E+01   -1.2035516300E+01   -1.1947534401E+01   -1.1860583765E+01
-1.1774672101E+01   -1.1689805588E+01   -1.1605988849E+01   -1.1523224912E+01
-1.1441515177E+01   -1.1360859390E+01   -1.1281255607E+01   -1.1202700169E+01
-1.1125187660E+01   -1.1048710885E+01   -1.0973260842E+01   -1.0898826902E+01
-1.0825396522E+01   -1.0752955191E+01   -1.0681485281E+01   -1.0610964863E+01
-1.0541369510E+01   -1.0472673741E+01   -1.0404854309E+01   -1.0337891232E+01
-1.0271766439E+01   -1.0206463120E+01   -1.0141964222E+01   -1.0078252758E+01
-1.0015312507E+01   -9.9531278413E+00   -9.8916839023E+00   -9.8309663917E+00
-9.7709613730E+00   -9.7116553943E+00   -9.6530355179E+00   -9.5950892547E+00
-9.5378045402E+00   -9.4811697223E+00   -9.4251735639E+00   -9.3698051466E+00
-9.3150538420E+00   -9.2609094528E+00   -9.2073622121E+00   -9.1544032401E+00
-9.1020249578E+00   -9.0502205805E+00   -8.9989841322E+00   -8.9483096958E+00
-8.8981903760E+00   -8.8486187699E+00   -8.7995870993E+00   -8.7510874555E+00
-8.7031123986E+00   -8.6556549658E+00   -8.6087083337E+00   -8.5622657211E+00
-8.5163204396E+00   -8.4708657989E+00   -8.4258951746E+00   -8.3814021057E+00
-8.3373802151E+00   -8.2938231801E+00   -8.2507247351E+00   -8.2080786804E+00
-8.1658788785E+00   -8.1241192469E+00   -8.0827937546E+00   -8.0418964207E+00
-8.0014213122E+00   -7.9613625425E+00   -7.9217142697E+00   -7.8824706963E+00
-7.8436260681E+00   -7.8051746743E+00   -7.7671108476E+00   -7.7294289647E+00
-7.6921234468E+00   -7.6551887606E+00   -7.6186194198E+00   -7.5824099861E+00
-7.5465550709E+00   -7.5110493373E+00   -7.4758875019E+00   -7.4410643365E+00
-7.4065746708E+00   -7.3724133940E+00   -7.3385754576E+00   -7.3050558773E+00
-7.2718497355E+00   -7.2389521834E+00   -7.2063584431E+00   -7.1740638104E+00
-7.1420636562E+00   -7.1103534288E+00   -7.0789286558E+00   -7.0477849459E+00
-7.0169179903E+00   -6.9863235646E+00   -6.9559975296E+00   -6.9259358328E+00
-6.8961345092E+00   -6.8665896822E+00   -6.8372975638E+00   -6.8082544554E+00
-6.7794567476E+00   -6.7509009202E+00   -6.7225835419E+00   -6.6945012699E+00
-6.6666508492E+00   -6.6390291114E+00   -6.6116329740E+00   -6.5844594384E+00
-6.5575055894E+00   -6.5307685923E+00   -6.5042456921E+00   -6.4779342106E+00
-6.4518315447E+00   -6.4259351640E+00   -6.4002426079E+00   -6.3747514837E+00
-6.3494594632E+00   -6.3243642802E+00   -6.2994637279E+00   -6.2747556552E+00
-6.2502379646E+00   -6.2259086086E+00   -6.2017655869E+00   -6.1778069432E+00
-6.1540307625E+00   -6.1304351678E+00   -6.1070183175E+00   -6.0837784022E+00
-6.0607136425E+00   -6.0378222855E+00   -6.0151026032E+00   -5.9925528891E+00
-5.9701714570E+00   -5.9479566377E+00   -5.9259067779E+00   -5.9040202380E+00
-5.8822953905E+00   -5.8607306184E+00   -5.8393243142E+00   -5.8180748788E+00
-5.7969807201E+00   -5.7760402527E+00   -5.7552518975E+00   -5.7346140808E+00
-5.7141252346E+00   -5.6937837964E+00   -5.6735882092E+00   -5.6535369221E+00
-5.6336283906E+00   -5.6138610769E+00   -5.5942334510E+00   -5.5747439915E+00
-5.5553911861E+00   -5.5361735326E+00   -5.5170895404E+00   -5.4981377311E+00
-5.4793166396E+00   -5.4606248155E+00   -5.4420608238E+00   -5.4236232463E+00
-5.4053106827E+00   -5.3871217511E+00   -5.3690550895E+00   -5.3511093566E+00
-5.3332832323E+00   -5.3155754186E+00   -5.2979846404E+00   -5.2805096457E+00
-5.2631492063E+00   -5.2459021179E+00   -5.2287672004E+00   -5.2117432979E+00
-5.1948292790E+00   -5.1780240359E+00   -5.1613264849E+00   -5.1447355659E+00
-5.1282502414E+00   -5.1118694965E+00   -5.0955923381E+00   -5.0794177942E+00
-5.0633449128E+00   -5.0473727614E+00   -5.0315004260E+00   -5.0157270100E+00
-5.0000516333E+00   -4.9844734312E+00   -4.9689915535E+00   -4.9536051634E+00
-4.9383134366E+00   -4.9231155598E+00   -4.9080107303E+00   -4.8929981550E+00
-4.8780770492E+00   -4.8632466357E+00   -4.8485061445E+00   -4.8338548115E+00
-4.8192918785E+00   -4.8048165919E+00   -4.7904282026E+00   -4.7761259656E+00
-4.7619091396E+00   -4.7477769866E+00   -4.7337287720E+00   -4.7197637640E+00
-4.7058812343E+00   -4.6920804574E+00   -4.6783607114E+00   -4.6647212774E+00
-4.6511614407E+00   -4.6376804900E+00   -4.6242777188E+00   -4.6109524249E+00
-4.5977039113E+00   -4.5845314865E+00   -4.5714344649E+00   -4.5584121674E+00
-4.5454639215E+00   -4.5325890620E+00   -4.5197869317E+00   -4.5070568812E+00
-4.4943982696E+00   -4.4818104649E+00   -4.4692928444E+00   -4.4568447946E+00
-4.4444657117E+00   -4.4321550015E+00   -4.4199120804E+00   -4.4077363741E+00
-4.3956273189E+00   -4.3835843617E+00   -4.3716069573E+00   -4.3596945705E+00
-4.3478466761E+00   -4.3360627559E+00   -4.3243423013E+00   -4.3126848272E+00
-4.3010898484E+00   -4.2895568851E+00   -4.2780854803E+00   -4.2666751381E+00
-4.2553253793E+00   -4.2440357343E+00   -4.2328057488E+00   -4.2216349755E+00
-4.2105229687E+00   -4.1994693096E+00   -4.1884736015E+00   -4.1775353787E+00
-4.1666544024E+00   -4.1558303865E+00   -4.1450630263E+00   -4.1343520271E+00
-4.1236970595E+00   -4.1130976002E+00   -4.1025531559E+00   -4.0920631928E+00
-4.0816271945E+00   -4.0712445303E+00   -4.0609145457E+00   -4.0506366258E+00
-4.0404101880E+00   -4.0302345100E+00   -4.0201093700E+00   -4.0100344417E+00
-4.0000094356E+00   -3.9900341132E+00   -3.9801082808E+00   -3.9702315935E+00
-3.9604037725E+00   -3.9506245275E+00   -3.9408935767E+00   -3.9312106009E+00
-3.9215751995E+00   -3.9119869963E+00   -3.9024456087E+00   -3.8929506144E+00
-3.8835016552E+00   -3.8740984296E+00   -3.8647406094E+00   -3.8554278742E+00
-3.8461599264E+00   -3.8369364440E+00   -3.8277570971E+00   -3.8186215697E+00
-3.8095295478E+00   -3.8004807179E+00   -3.7914747731E+00   -3.7825114109E+00
-3.7735903299E+00   -3.7647112317E+00   -3.7558738208E+00   -3.7470778043E+00