File written on  7May2019 at 13:44:08 

calc_only_A  :  F

begin real_lattice
   0.0000000   2.6988038   2.6988038
   2.6988038   0.0000000   2.6988038
   2.6988038   2.6988038   0.0000000
end real_lattice

begin recip_lattice
  -1.1640686   1.1640686   1.1640686
   1.1640686  -1.1640686   1.1640686
   1.1640686   1.1640686  -1.1640686
end recip_lattice

begin kpoints
    64
    0.00000000    0.00000000    0.00000000
   -0.25000000    0.00000000    0.00000000
    0.25000000    0.00000000    0.00000000
    0.00000000   -0.25000000    0.00000000
    0.00000000    0.00000000   -0.25000000
    0.00000000    0.25000000    0.00000000
    0.00000000    0.00000000    0.25000000
   -0.25000000   -0.25000000    0.00000000
    0.25000000   -0.25000000    0.00000000
   -0.25000000    0.25000000    0.00000000
   -0.25000000    0.00000000   -0.25000000
    0.00000000   -0.25000000   -0.25000000
    0.25000000    0.25000000    0.00000000
    0.25000000    0.00000000   -0.25000000
    0.00000000    0.25000000   -0.25000000
   -0.25000000    0.00000000    0.25000000
    0.25000000    0.00000000    0.25000000
    0.00000000   -0.25000000    0.25000000
    0.00000000    0.25000000    0.25000000
   -0.25000000   -0.25000000   -0.25000000
    0.25000000   -0.25000000   -0.25000000
   -0.25000000    0.25000000   -0.25000000
    0.25000000    0.25000000   -0.25000000
   -0.25000000   -0.25000000    0.25000000
    0.25000000   -0.25000000    0.25000000
   -0.25000000    0.25000000    0.25000000
    0.25000000    0.25000000    0.25000000
   -0.50000000    0.00000000    0.00000000
    0.00000000   -0.50000000    0.00000000
    0.00000000    0.00000000   -0.50000000
   -0.50000000   -0.25000000    0.00000000
   -0.25000000   -0.50000000    0.00000000
    0.25000000   -0.50000000    0.00000000
   -0.50000000    0.25000000    0.00000000
   -0.50000000    0.00000000   -0.25000000
    0.00000000   -0.50000000   -0.25000000
   -0.25000000    0.00000000   -0.50000000
    0.25000000    0.00000000   -0.50000000
    0.00000000   -0.25000000   -0.50000000
    0.00000000    0.25000000   -0.50000000
   -0.50000000    0.00000000    0.25000000
    0.00000000   -0.50000000    0.25000000
   -0.50000000   -0.25000000   -0.25000000
   -0.25000000   -0.50000000   -0.25000000
    0.25000000   -0.50000000   -0.25000000
   -0.50000000    0.25000000   -0.25000000
   -0.25000000   -0.25000000   -0.50000000
    0.25000000   -0.25000000   -0.50000000
   -0.25000000    0.25000000   -0.50000000
    0.25000000    0.25000000   -0.50000000
   -0.50000000   -0.25000000    0.25000000
   -0.25000000   -0.50000000    0.25000000
    0.25000000   -0.50000000    0.25000000
   -0.50000000    0.25000000    0.25000000
   -0.50000000   -0.50000000    0.00000000
   -0.50000000    0.00000000   -0.50000000
    0.00000000   -0.50000000   -0.50000000
   -0.50000000   -0.50000000   -0.25000000
   -0.50000000   -0.25000000   -0.50000000
   -0.25000000   -0.50000000   -0.50000000
    0.25000000   -0.50000000   -0.50000000
   -0.50000000    0.25000000   -0.50000000
   -0.50000000   -0.50000000    0.25000000
   -0.50000000   -0.50000000   -0.50000000
end kpoints

begin projections
     8
   0.00000    0.00000    0.00000    -3  1  1
    0.0000000  0.0000000  1.0000000   1.0000000  0.0000000  0.0000000    1.00
   0.00000    0.00000    0.00000    -3  2  1
    0.0000000  0.0000000  1.0000000   1.0000000  0.0000000  0.0000000    1.00
   0.00000    0.00000    0.00000    -3  3  1
    0.0000000  0.0000000  1.0000000   1.0000000  0.0000000  0.0000000    1.00
   0.00000    0.00000    0.00000    -3  4  1
    0.0000000  0.0000000  1.0000000   1.0000000  0.0000000  0.0000000    1.00
   0.25000    0.25000    0.25000    -3  1  1
    0.0000000  0.0000000  1.0000000   1.0000000  0.0000000  0.0000000    1.00
   0.25000    0.25000    0.25000    -3  2  1
    0.0000000  0.0000000  1.0000000   1.0000000  0.0000000  0.0000000    1.00
   0.25000    0.25000    0.25000    -3  3  1
    0.0000000  0.0000000  1.0000000   1.0000000  0.0000000  0.0000000    1.00
   0.25000    0.25000    0.25000    -3  4  1
    0.0000000  0.0000000  1.0000000   1.0000000  0.0000000  0.0000000    1.00
end projections

begin nnkpts
   8
     1     2      0   0   0
     1     3      0   0   0
     1     4      0   0   0
     1     5      0   0   0
     1     6      0   0   0
     1     7      0   0   0
     1    20      0   0   0
     1    27      0   0   0
     2     1      0   0   0
     2     8      0   0   0
     2    10      0   0   0
     2    11      0   0   0
     2    16      0   0   0
     2    19      0   0   0
     2    28      0   0   0
     2    43      0   0   0
     3     1      0   0   0
     3     9      0   0   0
     3    12      0   0   0
     3    13      0   0   0
     3    14      0   0   0
     3    17      0   0   0
     3    28      1   0   0
     3    54      1   0   0
     4     1      0   0   0
     4     8      0   0   0
     4     9      0   0   0
     4    12      0   0   0
     4    17      0   0   0
     4    18      0   0   0
     4    29      0   0   0
     4    44      0   0   0
     5     1      0   0   0
     5    11      0   0   0
     5    12      0   0   0
     5    13      0   0   0
     5    14      0   0   0
     5    15      0   0   0
     5    30      0   0   0
     5    47      0   0   0
     6     1      0   0   0
     6    10      0   0   0
     6    11      0   0   0
     6    13      0   0   0
     6    15      0   0   0
     6    19      0   0   0
     6    29      0   1   0
     6    53      0   1   0
     7     1      0   0   0
     7     8      0   0   0
     7    16      0   0   0
     7    17      0   0   0
     7    18      0   0   0
     7    19      0   0   0
     7    30      0   0   1
     7    50      0   0   1
     8     2      0   0   0
     8     4      0   0   0
     8     7      0   0   0
     8    20      0   0   0
     8    24      0   0   0
     8    31      0   0   0
     8    32      0   0   0
     8    58      0   0   0
     9     3      0   0   0
     9     4      0   0   0
     9    21      0   0   0
     9    25      0   0   0
     9    33      0   0   0
     9    36      0   0   0
     9    31      1   0   0
     9    41      1   0   0
    10     2      0   0   0
    10     6      0   0   0
    10    22      0   0   0
    10    26      0   0   0
    10    34      0   0   0
    10    35      0   0   0
    10    32      0   1   0
    10    42      0   1   0
    11     2      0   0   0
    11     5      0   0   0
    11     6      0   0   0
    11    20      0   0   0
    11    22      0   0   0
    11    35      0   0   0
    11    37      0   0   0
    11    59      0   0   0
    12     3      0   0   0
    12     4      0   0   0
    12     5      0   0   0
    12    20      0   0   0
    12    21      0   0   0
    12    36      0   0   0
    12    39      0   0   0
    12    60      0   0   0
    13     3      0   0   0
    13     5      0   0   0
    13     6      0   0   0
    13    23      0   0   0
    13    27      0   0   0
    13    34      1   0   0
    13    33      0   1   0
    13    63      1   1   0
    14     3      0   0   0
    14     5      0   0   0
    14    21      0   0   0
    14    23      0   0   0
    14    38      0   0   0
    14    39      0   0   0
    14    34      1   0   0
    14    35      1   0   0
    15     5      0   0   0
    15     6      0   0   0
    15    22      0   0   0
    15    23      0   0   0
    15    37      0   0   0
    15    40      0   0   0
    15    33      0   1   0
    15    36      0   1   0
    16     2      0   0   0
    16     7      0   0   0
    16    24      0   0   0
    16    26      0   0   0
    16    31      0   0   0
    16    41      0   0   0
    16    37      0   0   1
    16    40      0   0   1
    17     3      0   0   0
    17     4      0   0   0
    17     7      0   0   0
    17    25      0   0   0
    17    27      0   0   0
    17    41      1   0   0
    17    38      0   0   1
    17    62      1   0   1
    18     4      0   0   0
    18     7      0   0   0
    18    24      0   0   0
    18    25      0   0   0
    18    32      0   0   0
    18    42      0   0   0
    18    38      0   0   1
    18    39      0   0   1
    19     2      0   0   0
    19     6      0   0   0
    19     7      0   0   0
    19    26      0   0   0
    19    27      0   0   0
    19    42      0   1   0
    19    40      0   0   1
    19    61      0   1   1
    20     1      0   0   0
    20     8      0   0   0
    20    11      0   0   0
    20    12      0   0   0
    20    43      0   0   0
    20    44      0   0   0
    20    47      0   0   0
    20    64      0   0   0
    21     9      0   0   0
    21    12      0   0   0
    21    14      0   0   0
    21    45      0   0   0
    21    48      0   0   0
    21    57      0   0   0
    21    28      1   0   0
    21    43      1   0   0
    22    10      0   0   0
    22    11      0   0   0
    22    15      0   0   0
    22    46      0   0   0
    22    49      0   0   0
    22    56      0   0   0
    22    29      0   1   0
    22    44      0   1   0
    23    13      0   0   0
    23    14      0   0   0
    23    15      0   0   0
    23    30      0   0   0
    23    50      0   0   0
    23    46      1   0   0
    23    45      0   1   0
    23    55      1   1   0
    24     8      0   0   0
    24    16      0   0   0
    24    18      0   0   0
    24    51      0   0   0
    24    52      0   0   0
    24    55      0   0   0
    24    30      0   0   1
    24    47      0   0   1
    25     9      0   0   0
    25    17      0   0   0
    25    18      0   0   0
    25    29      0   0   0
    25    53      0   0   0
    25    51      1   0   0
    25    48      0   0   1
    25    56      1   0   1
    26    10      0   0   0
    26    16      0   0   0
    26    19      0   0   0
    26    28      0   0   0
    26    54      0   0   0
    26    52      0   1   0
    26    49      0   0   1
    26    57      0   1   1
    27     1      0   0   0
    27    13      0   0   0
    27    17      0   0   0
    27    19      0   0   0
    27    64      1   1   1
    27    54      1   0   0
    27    53      0   1   0
    27    50      0   0   1
    28     2      0   0   0
    28    26      0   0   0
    28    31      0   0   0
    28    34      0   0   0
    28    35      0   0   0
    28    41      0   0   0
    28     3     -1   0   0
    28    21     -1   0   0
    29     4      0   0   0
    29    25      0   0   0
    29    32      0   0   0
    29    33      0   0   0
    29    36      0   0   0
    29    42      0   0   0
    29     6      0  -1   0
    29    22      0  -1   0
    30     5      0   0   0
    30    23      0   0   0
    30    37      0   0   0
    30    38      0   0   0
    30    39      0   0   0
    30    40      0   0   0
    30     7      0   0  -1
    30    24      0   0  -1
    31     8      0   0   0
    31    16      0   0   0
    31    28      0   0   0
    31    43      0   0   0
    31    51      0   0   0
    31    55      0   0   0
    31     9     -1   0   0
    31    45     -1   0   0
    32     8      0   0   0
    32    18      0   0   0
    32    29      0   0   0
    32    44      0   0   0
    32    52      0   0   0
    32    55      0   0   0
    32    10      0  -1   0
    32    46      0  -1   0
    33     9      0   0   0
    33    29      0   0   0
    33    45      0   0   0
    33    53      0   0   0
    33    51      1   0   0
    33    55      1   0   0
    33    13      0  -1   0
    33    15      0  -1   0
    34    10      0   0   0
    34    28      0   0   0
    34    46      0   0   0
    34    54      0   0   0
    34    52      0   1   0
    34    55      0   1   0
    34    13     -1   0   0
    34    14     -1   0   0
    35    10      0   0   0
    35    11      0   0   0
    35    28      0   0   0
    35    43      0   0   0
    35    46      0   0   0
    35    56      0   0   0
    35    14     -1   0   0
    35    48     -1   0   0
    36     9      0   0   0
    36    12      0   0   0
    36    29      0   0   0
    36    44      0   0   0
    36    45      0   0   0
    36    57      0   0   0
    36    15      0  -1   0
    36    49      0  -1   0
    37    11      0   0   0
    37    15      0   0   0
    37    30      0   0   0
    37    47      0   0   0
    37    49      0   0   0
    37    56      0   0   0
    37    16      0   0  -1
    37    51      0   0  -1
    38    14      0   0   0
    38    30      0   0   0
    38    48      0   0   0
    38    50      0   0   0
    38    46      1   0   0
    38    56      1   0   0
    38    17      0   0  -1
    38    18      0   0  -1
    39    12      0   0   0
    39    14      0   0   0
    39    30      0   0   0
    39    47      0   0   0
    39    48      0   0   0
    39    57      0   0   0
    39    18      0   0  -1
    39    52      0   0  -1
    40    15      0   0   0
    40    30      0   0   0
    40    49      0   0   0
    40    50      0   0   0
    40    45      0   1   0
    40    57      0   1   0
    40    16      0   0  -1
    40    19      0   0  -1
    41    16      0   0   0
    41    28      0   0   0
    41    51      0   0   0
    41    54      0   0   0
    41    49      0   0   1
    41    56      0   0   1
    41     9     -1   0   0
    41    17     -1   0   0
    42    18      0   0   0
    42    29      0   0   0
    42    52      0   0   0
    42    53      0   0   0
    42    48      0   0   1
    42    57      0   0   1
    42    10      0  -1   0
    42    19      0  -1   0
    43     2      0   0   0
    43    20      0   0   0
    43    31      0   0   0
    43    35      0   0   0
    43    58      0   0   0
    43    59      0   0   0
    43    21     -1   0   0
    43    61     -1   0   0
    44     4      0   0   0
    44    20      0   0   0
    44    32      0   0   0
    44    36      0   0   0
    44    58      0   0   0
    44    60      0   0   0
    44    22      0  -1   0
    44    62      0  -1   0
    45    21      0   0   0
    45    33      0   0   0
    45    36      0   0   0
    45    61      0   0   0
    45    31      1   0   0
    45    58      1   0   0
    45    23      0  -1   0
    45    40      0  -1   0
    46    22      0   0   0
    46    34      0   0   0
    46    35      0   0   0
    46    62      0   0   0
    46    32      0   1   0
    46    58      0   1   0
    46    23     -1   0   0
    46    38     -1   0   0
    47     5      0   0   0
    47    20      0   0   0
    47    37      0   0   0
    47    39      0   0   0
    47    59      0   0   0
    47    60      0   0   0
    47    24      0   0  -1
    47    63      0   0  -1
    48    21      0   0   0
    48    38      0   0   0
    48    39      0   0   0
    48    61      0   0   0
    48    35      1   0   0
    48    59      1   0   0
    48    25      0   0  -1
    48    42      0   0  -1
    49    22      0   0   0
    49    37      0   0   0
    49    40      0   0   0
    49    62      0   0   0
    49    36      0   1   0
    49    60      0   1   0
    49    26      0   0  -1
    49    41      0   0  -1
    50    23      0   0   0
    50    38      0   0   0
    50    40      0   0   0
    50    62      1   0   0
    50    61      0   1   0
    50     7      0   0  -1
    50    27      0   0  -1
    50    58      1   1   0
    51    24      0   0   0
    51    31      0   0   0
    51    41      0   0   0
    51    63      0   0   0
    51    37      0   0   1
    51    59      0   0   1
    51    25     -1   0   0
    51    33     -1   0   0
    52    24      0   0   0
    52    32      0   0   0
    52    42      0   0   0
    52    63      0   0   0
    52    39      0   0   1
    52    60      0   0   1
    52    26      0  -1   0
    52    34      0  -1   0
    53    25      0   0   0
    53    33      0   0   0
    53    42      0   0   0
    53    63      1   0   0
    53    61      0   0   1
    53     6      0  -1   0
    53    27      0  -1   0
    53    59      1   0   1
    54    26      0   0   0
    54    34      0   0   0
    54    41      0   0   0
    54    63      0   1   0
    54    62      0   0   1
    54     3     -1   0   0
    54    27     -1   0   0
    54    60      0   1   1
    55    24      0   0   0
    55    31      0   0   0
    55    32      0   0   0
    55    58      0   0   0
    55    63      0   0   0
    55    34      0  -1   0
    55    33     -1   0   0
    55    23     -1  -1   0
    56    22      0   0   0
    56    35      0   0   0
    56    37      0   0   0
    56    59      0   0   0
    56    62      0   0   0
    56    41      0   0  -1
    56    38     -1   0   0
    56    25     -1   0  -1
    57    21      0   0   0
    57    36      0   0   0
    57    39      0   0   0
    57    60      0   0   0
    57    61      0   0   0
    57    42      0   0  -1
    57    40      0  -1   0
    57    26      0  -1  -1
    58     8      0   0   0
    58    43      0   0   0
    58    44      0   0   0
    58    55      0   0   0
    58    64      0   0   0
    58    46      0  -1   0
    58    45     -1   0   0
    58    50     -1  -1   0
    59    11      0   0   0
    59    43      0   0   0
    59    47      0   0   0
    59    56      0   0   0
    59    64      0   0   0
    59    51      0   0  -1
    59    48     -1   0   0
    59    53     -1   0  -1
    60    12      0   0   0
    60    44      0   0   0
    60    47      0   0   0
    60    57      0   0   0
    60    64      0   0   0
    60    52      0   0  -1
    60    49      0  -1   0
    60    54      0  -1  -1
    61    45      0   0   0
    61    48      0   0   0
    61    57      0   0   0
    61    43      1   0   0
    61    64      1   0   0
    61    53      0   0  -1
    61    50      0  -1   0
    61    19      0  -1  -1
    62    46      0   0   0
    62    49      0   0   0
    62    56      0   0   0
    62    44      0   1   0
    62    64      0   1   0
    62    54      0   0  -1
    62    50     -1   0   0
    62    17     -1   0  -1
    63    51      0   0   0
    63    52      0   0   0
    63    55      0   0   0
    63    47      0   0   1
    63    64      0   0   1
    63    54      0  -1   0
    63    53     -1   0   0
    63    13     -1  -1   0
    64    20      0   0   0
    64    58      0   0   0
    64    59      0   0   0
    64    60      0   0   0
    64    63      0   0  -1
    64    62      0  -1   0
    64    61     -1   0   0
    64    27     -1  -1  -1
end nnkpts

begin exclude_bands
   0
end exclude_bands
